
    -----------------------------------------------------------------------
          Psi4: An Open-Source Ab Initio Electronic Structure Package
                               Psi4 1.8 release

                         Git: Rev {} zzzzzzz 


    D. G. A. Smith, L. A. Burns, A. C. Simmonett, R. M. Parrish,
    M. C. Schieber, R. Galvelis, P. Kraus, H. Kruse, R. Di Remigio,
    A. Alenaizan, A. M. James, S. Lehtola, J. P. Misiewicz, M. Scheurer,
    R. A. Shaw, J. B. Schriber, Y. Xie, Z. L. Glick, D. A. Sirianni,
    J. S. O'Brien, J. M. Waldrop, A. Kumar, E. G. Hohenstein,
    B. P. Pritchard, B. R. Brooks, H. F. Schaefer III, A. Yu. Sokolov,
    K. Patkowski, A. E. DePrince III, U. Bozkaya, R. A. King,
    F. A. Evangelista, J. M. Turney, T. D. Crawford, C. D. Sherrill,
    J. Chem. Phys. 152(18) 184108 (2020). https://doi.org/10.1063/5.0006002

                            Additional Code Authors
    E. T. Seidl, C. L. Janssen, E. F. Valeev, M. L. Leininger,
    J. F. Gonthier, R. M. Richard, H. R. McAlexander, M. Saitow, X. Wang,
    P. Verma, M. H. Lechner, A. Jiang, S. Behnle, A. G. Heide,
    M. F. Herbst, and D. L. Poole

             Previous Authors, Complete List of Code Contributors,
                       and Citations for Specific Modules
    https://github.com/psi4/psi4/blob/master/codemeta.json
    https://github.com/psi4/psi4/graphs/contributors
    http://psicode.org/psi4manual/master/introduction.html#citing-psifour

    -----------------------------------------------------------------------


    Psi4 started on: Wednesday, 16 August 2023 05:03PM

    Process ID: 19122
    Host:       NUS-LAPTOP
    PSIDATADIR: /home/stephen/src/psi4conda/share/psi4
    Memory:     500.0 MiB
    Threads:    1
    
Scratch directory: /tmp/
   => Libint2 <=

    Primary   basis highest AM E, G, H:  5, 4, 3
    Auxiliary basis highest AM E, G, H:  6, 5, 4
    Onebody   basis highest AM E, G, H:  6, 5, 4
    Solid Harmonics ordering:            gaussian

*** tstart() called on NUS-LAPTOP
*** at Wed Aug 16 17:03:43 2023

   => Loading Basis Set <=

    Name: 6-31G
    Role: ORBITAL
    Keyword: BASIS
    atoms 1-2 entry C          line    87 file /home/stephen/src/psi4conda/share/psi4/basis/6-31g.gbs 
    atoms 3-7 entry H          line    26 file /home/stephen/src/psi4conda/share/psi4/basis/6-31g.gbs 


         ---------------------------------------------------------
                                   SCF
               by Justin Turney, Rob Parrish, Andy Simmonett
                          and Daniel G. A. Smith
                              UKS Reference
                        1 Threads,    500 MiB Core
         ---------------------------------------------------------

  ==> Geometry <==

    Molecular point group: c1
    Full point group: Cs

    Geometry (in Angstrom), charge = 0, multiplicity = 2:

       Center              X                  Y                   Z               Mass       
    ------------   -----------------  -----------------  -----------------  -----------------
         C           -0.006239228076    -0.716219546551     0.000000000000    12.000000000000
         C           -0.006239228076     0.774822023449     0.000000000000    12.000000000000
         H            1.013418591924    -1.120045286551     0.000000000000     1.007825032230
         H           -0.504284508076    -1.115843616551     0.883419080000     1.007825032230
         H           -0.504284508076    -1.115843616551    -0.883419080000     1.007825032230
         H            0.071864631924     1.326981433449    -0.924319190000     1.007825032230
         H            0.071864631924     1.326981433449     0.924319190000     1.007825032230

  Running in c1 symmetry.

  Rotational constants: A =      3.47401  B =      0.75791  C =      0.70299 [cm^-1]
  Rotational constants: A = 104148.16563  B =  22721.67570  C =  21075.01783 [MHz]
  Nuclear repulsion =   36.977811592798311

  Charge       = 0
  Multiplicity = 2
  Electrons    = 17
  Nalpha       = 9
  Nbeta        = 8

  ==> Algorithm <==

  SCF Algorithm Type is DF.
  DIIS enabled.
  MOM disabled.
  Fractional occupation disabled.
  Guess Type is SAD.
  Energy threshold   = 1.00e-08
  Density threshold  = 1.00e-06
  Integral threshold = 1.00e-12

  ==> Primary Basis <==

  Basis Set: 6-31G
    Blend: 6-31G
    Number of shells: 20
    Number of basis functions: 28
    Number of Cartesian functions: 28
    Spherical Harmonics?: false
    Max angular momentum: 1

  ==> DFT Potential <==

   => LibXC <=

    Version 6.1.0
    S. Lehtola, C. Steigemann, M. J.T. Oliveira, and M. A.L. Marques.,  SoftwareX 7, 1–5 (2018) (10.1016/j.softx.2017.11.002)

   => Composite Functional: PBE_CUSTOM <= 

    Perdew, Burke & Ernzerhof
    J. P. Perdew, K. Burke, and M. Ernzerhof.,  Phys. Rev. Lett. 77, 3865 (1996) (10.1103/PhysRevLett.77.3865)
    J. P. Perdew, K. Burke, and M. Ernzerhof.,  Phys. Rev. Lett. 78, 1396 (1997) (10.1103/PhysRevLett.78.1396)

    Deriv               =              1
    GGA                 =           TRUE
    Meta                =          FALSE

    Exchange Hybrid     =          FALSE
    MP2 Hybrid          =          FALSE

   => Exchange Functionals <=

    1.0000     XC_GGA_X_PBE

   => Correlation Functionals <=

    1.0000     XC_GGA_C_PBE

   => LibXC Density Thresholds  <==

    XC_GGA_C_PBE:  1.00E-12 
    XC_GGA_X_PBE:  1.00E-15 

   => Molecular Quadrature <=

    Radial Scheme          =       TREUTLER
    Pruning Scheme         =           NONE
    Nuclear Scheme         =       TREUTLER

    Blocking Scheme        =         OCTREE
    BS radius alpha        =              1
    Pruning alpha          =              1
    Radial Points          =             75
    Spherical Points       =            302
    Total Points           =         151373
    Total Blocks           =           1208
    Max Points             =            256
    Max Functions          =             28
    Weights Tolerance      =       1.00E-15

   => Loading Basis Set <=

    Name: (6-31G AUX)
    Role: JKFIT
    Keyword: DF_BASIS_SCF
    atoms 1-2 entry C          line   121 file /home/stephen/src/psi4conda/share/psi4/basis/cc-pvdz-jkfit.gbs 
    atoms 3-7 entry H          line    51 file /home/stephen/src/psi4conda/share/psi4/basis/cc-pvdz-jkfit.gbs 

  ==> Integral Setup <==

  DFHelper Memory: AOs need 0.002 GiB; user supplied 0.247 GiB. 
  Using in-core AOs.

  ==> MemDFJK: Density-Fitted J/K Matrices <==

    J tasked:                   Yes
    K tasked:                    No
    wK tasked:                   No
    OpenMP threads:               1
    Memory [MiB]:               252
    Algorithm:                 Core
    Schwarz Cutoff:           1E-12
    Mask sparsity (%):       0.0000
    Fitting Condition:        1E-10

   => Auxiliary Basis Set <=

  Basis Set: (6-31G AUX)
    Blend: CC-PVDZ-JKFIT
    Number of shells: 93
    Number of basis functions: 287
    Number of Cartesian functions: 287
    Spherical Harmonics?: false
    Max angular momentum: 3

  Cached 100.0% of DFT collocation blocks in 0.119 [GiB].

  Minimum eigenvalue in the overlap matrix is 1.1687748856E-02.
  Reciprocal condition number of the overlap matrix is 2.5147494532E-03.
    Using symmetric orthogonalization.

  ==> Pre-Iterations <==

  SCF Guess: Superposition of Atomic Densities via on-the-fly atomic UHF (no occupation information).

   -------------------------
    Irrep   Nso     Nmo    
   -------------------------
     A         28      28 
   -------------------------
    Total      28      28
   -------------------------

  ==> Iterations <==

                           Total Energy        Delta E     RMS |[F,P]|

   @DF-UKS iter SAD:   -78.55604569155420   -7.85560e+01   0.00000e+00 
   @DF-UKS iter   1:   -78.75962547593163   -2.03580e-01   2.40246e-02 DIIS/ADIIS
   @DF-UKS iter   2:   -78.55344820855345    2.06177e-01   3.09909e-02 DIIS/ADIIS
   @DF-UKS iter   3:   -79.01567045364617   -4.62222e-01   7.70567e-04 DIIS/ADIIS
   @DF-UKS iter   4:   -79.01588958536627   -2.19132e-04   3.64583e-04 DIIS/ADIIS
   @DF-UKS iter   5:   -79.01594141354246   -5.18282e-05   1.11548e-04 DIIS/ADIIS
   @DF-UKS iter   6:   -79.01594770262562   -6.28908e-06   1.51484e-05 DIIS
   @DF-UKS iter   7:   -79.01594790640216   -2.03777e-07   3.95873e-06 DIIS
   @DF-UKS iter   8:   -79.01594791596635   -9.56419e-09   8.62561e-07 DIIS
  Energy and wave function converged.


  ==> Post-Iterations <==

   Electrons on quadrature grid:
      Nalpha   =    9.0000029365 ; deviation = 2.937e-06
      Nbeta    =    8.0000029740 ; deviation = 2.974e-06
      Ntotal   =   17.0000059105 ; deviation = 5.911e-06 

   @Spin Contamination Metric:   3.064620237E-03
   @S^2 Expected:                7.500000000E-01
   @S^2 Observed:                7.530646202E-01
   @S   Expected:                5.000000000E-01
   @S   Observed:                5.000000000E-01

    Orbital Energies [Eh]
    ---------------------

    Alpha Occupied:                                                       

       1A     -9.889274     2A     -9.880131     3A     -0.681035  
       4A     -0.543290     5A     -0.399015     6A     -0.363144  
       7A     -0.341568     8A     -0.308724     9A     -0.152840  

    Alpha Virtual:                                                        

      10A      0.093590    11A      0.117568    12A      0.124965  
      13A      0.152272    14A      0.195957    15A      0.225968  
      16A      0.502242    17A      0.517737    18A      0.521171  
      19A      0.591597    20A      0.593645    21A      0.716491  
      22A      0.770865    23A      0.874277    24A      0.881922  
      25A      0.915440    26A      0.949920    27A      0.964255  
      28A      1.246441  

    Beta Occupied:                                                        

       1A     -9.880947     2A     -9.875863     3A     -0.666391  
       4A     -0.522148     5A     -0.392255     6A     -0.352659  
       7A     -0.333196     8A     -0.304248  

    Beta Virtual:                                                         

       9A     -0.065479    10A      0.098423    11A      0.127530  
      12A      0.131104    13A      0.159649    14A      0.200901  
      15A      0.236057    16A      0.509296    17A      0.524570  
      18A      0.569020    19A      0.605582    20A      0.616548  
      21A      0.726766    22A      0.790319    23A      0.883059  
      24A      0.885568    25A      0.921311    26A      0.967831  
      27A      0.972751    28A      1.257400  

    Final Occupation by Irrep:
              A 
    DOCC [     8 ]
    SOCC [     1 ]
    NA   [     9 ]
    NB   [     8 ]

  @DF-UKS Final Energy:   -79.01594791596635

   => Energetics <=

    Nuclear Repulsion Energy =             36.9778115927983109
    One-Electron Energy =                -178.1097589582950889
    Two-Electron Energy =                  74.6833782226768932
    DFT Exchange-Correlation Energy =     -12.5673787731464550
    Empirical Dispersion Energy =           0.0000000000000000
    VV10 Nonlocal Energy =                  0.0000000000000000
    Total Energy =                        -79.0159479159663505

  UHF NO Occupations:
  HONO-2 :    7  A 1.9997121
  HONO-1 :    8  A 1.9991517
  HONO-0 :    9  A 1.0000000
  LUNO+0 :   10  A 0.0008483
  LUNO+1 :   11  A 0.0002879
  LUNO+2 :   12  A 0.0002361
  LUNO+3 :   13  A 0.0001443


Computation Completed


Properties will be evaluated at   0.000000,   0.000000,   0.000000 [a0]

Properties computed using the SCF density matrix


 Multipole Moments:

 ------------------------------------------------------------------------------------
     Multipole            Electronic (a.u.)      Nuclear  (a.u.)        Total (a.u.)
 ------------------------------------------------------------------------------------

 L = 1.  Multiply by 2.5417464519 to convert [e a0] to [Debye]
 Dipole X            :         -0.0791876            0.1392881            0.0601005
 Dipole Y            :          0.5429556           -0.6541378           -0.1111822
 Dipole Z            :         -0.0000000            0.0000000           -0.0000000
 Magnitude           :                                                    0.1263865

 ------------------------------------------------------------------------------------

*** tstop() called on NUS-LAPTOP at Wed Aug 16 17:03:45 2023
Module time:
	user time   =       1.32 seconds =       0.02 minutes
	system time =       0.02 seconds =       0.00 minutes
	total time  =          2 seconds =       0.03 minutes
Total time:
	user time   =      34.19 seconds =       0.57 minutes
	system time =       0.53 seconds =       0.01 minutes
	total time  =         35 seconds =       0.58 minutes
