
    -----------------------------------------------------------------------
          Psi4: An Open-Source Ab Initio Electronic Structure Package
                               Psi4 1.8 release

                         Git: Rev {} zzzzzzz 


    D. G. A. Smith, L. A. Burns, A. C. Simmonett, R. M. Parrish,
    M. C. Schieber, R. Galvelis, P. Kraus, H. Kruse, R. Di Remigio,
    A. Alenaizan, A. M. James, S. Lehtola, J. P. Misiewicz, M. Scheurer,
    R. A. Shaw, J. B. Schriber, Y. Xie, Z. L. Glick, D. A. Sirianni,
    J. S. O'Brien, J. M. Waldrop, A. Kumar, E. G. Hohenstein,
    B. P. Pritchard, B. R. Brooks, H. F. Schaefer III, A. Yu. Sokolov,
    K. Patkowski, A. E. DePrince III, U. Bozkaya, R. A. King,
    F. A. Evangelista, J. M. Turney, T. D. Crawford, C. D. Sherrill,
    J. Chem. Phys. 152(18) 184108 (2020). https://doi.org/10.1063/5.0006002

                            Additional Code Authors
    E. T. Seidl, C. L. Janssen, E. F. Valeev, M. L. Leininger,
    J. F. Gonthier, R. M. Richard, H. R. McAlexander, M. Saitow, X. Wang,
    P. Verma, M. H. Lechner, A. Jiang, S. Behnle, A. G. Heide,
    M. F. Herbst, and D. L. Poole

             Previous Authors, Complete List of Code Contributors,
                       and Citations for Specific Modules
    https://github.com/psi4/psi4/blob/master/codemeta.json
    https://github.com/psi4/psi4/graphs/contributors
    http://psicode.org/psi4manual/master/introduction.html#citing-psifour

    -----------------------------------------------------------------------


    Psi4 started on: Wednesday, 16 August 2023 05:03PM

    Process ID: 19122
    Host:       NUS-LAPTOP
    PSIDATADIR: /home/stephen/src/psi4conda/share/psi4
    Memory:     500.0 MiB
    Threads:    1
    
Scratch directory: /tmp/
   => Libint2 <=

    Primary   basis highest AM E, G, H:  5, 4, 3
    Auxiliary basis highest AM E, G, H:  6, 5, 4
    Onebody   basis highest AM E, G, H:  6, 5, 4
    Solid Harmonics ordering:            gaussian

*** tstart() called on NUS-LAPTOP
*** at Wed Aug 16 17:03:18 2023

   => Loading Basis Set <=

    Name: 6-31G
    Role: ORBITAL
    Keyword: BASIS
    atoms 1 entry F          line   132 file /home/stephen/src/psi4conda/share/psi4/basis/6-31g.gbs 
    atoms 2 entry CL         line   294 file /home/stephen/src/psi4conda/share/psi4/basis/6-31g.gbs 


         ---------------------------------------------------------
                                   SCF
               by Justin Turney, Rob Parrish, Andy Simmonett
                          and Daniel G. A. Smith
                              UKS Reference
                        1 Threads,    500 MiB Core
         ---------------------------------------------------------

  ==> Geometry <==

    Molecular point group: c1
    Full point group: C_inf_v

    Geometry (in Angstrom), charge = 0, multiplicity = 1:

       Center              X                  Y                   Z               Mass       
    ------------   -----------------  -----------------  -----------------  -----------------
         F            0.000000000000     0.000000000000    -1.056396599213    18.998403162730
         CL           0.000000000000     0.000000000000     0.573935000787    34.968852682000

  Running in c1 symmetry.

  Rotational constants: A = ************  B =      0.51520  C =      0.51520 [cm^-1]
  Rotational constants: A = ************  B =  15445.32884  C =  15445.32884 [MHz]
  Nuclear repulsion =   49.661132270582250

  Charge       = 0
  Multiplicity = 1
  Electrons    = 26
  Nalpha       = 13
  Nbeta        = 13

  ==> Algorithm <==

  SCF Algorithm Type is DF.
  DIIS enabled.
  MOM disabled.
  Fractional occupation disabled.
  Guess Type is SAD.
  Energy threshold   = 1.00e-08
  Density threshold  = 1.00e-06
  Integral threshold = 1.00e-12

  ==> Primary Basis <==

  Basis Set: 6-31G
    Blend: 6-31G
    Number of shells: 12
    Number of basis functions: 22
    Number of Cartesian functions: 22
    Spherical Harmonics?: false
    Max angular momentum: 1

  ==> DFT Potential <==

   => LibXC <=

    Version 6.1.0
    S. Lehtola, C. Steigemann, M. J.T. Oliveira, and M. A.L. Marques.,  SoftwareX 7, 1–5 (2018) (10.1016/j.softx.2017.11.002)

   => Composite Functional: PBE_CUSTOM <= 

    Perdew, Burke & Ernzerhof
    J. P. Perdew, K. Burke, and M. Ernzerhof.,  Phys. Rev. Lett. 77, 3865 (1996) (10.1103/PhysRevLett.77.3865)
    J. P. Perdew, K. Burke, and M. Ernzerhof.,  Phys. Rev. Lett. 78, 1396 (1997) (10.1103/PhysRevLett.78.1396)

    Deriv               =              1
    GGA                 =           TRUE
    Meta                =          FALSE

    Exchange Hybrid     =          FALSE
    MP2 Hybrid          =          FALSE

   => Exchange Functionals <=

    1.0000     XC_GGA_X_PBE

   => Correlation Functionals <=

    1.0000     XC_GGA_C_PBE

   => LibXC Density Thresholds  <==

    XC_GGA_C_PBE:  1.00E-12 
    XC_GGA_X_PBE:  1.00E-15 

   => Molecular Quadrature <=

    Radial Scheme          =       TREUTLER
    Pruning Scheme         =           NONE
    Nuclear Scheme         =       TREUTLER

    Blocking Scheme        =         OCTREE
    BS radius alpha        =              1
    Pruning alpha          =              1
    Radial Points          =             75
    Spherical Points       =            302
    Total Points           =          42115
    Total Blocks           =            380
    Max Points             =            256
    Max Functions          =             22
    Weights Tolerance      =       1.00E-15

   => Loading Basis Set <=

    Name: (6-31G AUX)
    Role: JKFIT
    Keyword: DF_BASIS_SCF
    atoms 1 entry F          line   271 file /home/stephen/src/psi4conda/share/psi4/basis/cc-pvdz-jkfit.gbs 
    atoms 2 entry CL         line   667 file /home/stephen/src/psi4conda/share/psi4/basis/cc-pvdz-jkfit.gbs 

  ==> Integral Setup <==

  DFHelper Memory: AOs need 0.001 GiB; user supplied 0.342 GiB. 
  Using in-core AOs.

  ==> MemDFJK: Density-Fitted J/K Matrices <==

    J tasked:                   Yes
    K tasked:                    No
    wK tasked:                   No
    OpenMP threads:               1
    Memory [MiB]:               350
    Algorithm:                 Core
    Schwarz Cutoff:           1E-12
    Mask sparsity (%):       0.4132
    Fitting Condition:        1E-10

   => Auxiliary Basis Set <=

  Basis Set: (6-31G AUX)
    Blend: CC-PVDZ-JKFIT
    Number of shells: 60
    Number of basis functions: 211
    Number of Cartesian functions: 211
    Spherical Harmonics?: false
    Max angular momentum: 3

  Cached 100.0% of DFT collocation blocks in 0.024 [GiB].

  Minimum eigenvalue in the overlap matrix is 9.4256365997E-02.
  Reciprocal condition number of the overlap matrix is 3.4883395317E-02.
    Using symmetric orthogonalization.

  ==> Pre-Iterations <==

  SCF Guess: Superposition of Atomic Densities via on-the-fly atomic UHF (no occupation information).

   -------------------------
    Irrep   Nso     Nmo    
   -------------------------
     A         22      22 
   -------------------------
    Total      22      22
   -------------------------

  ==> Iterations <==

                           Total Energy        Delta E     RMS |[F,P]|

   @DF-UKS iter SAD:  -559.55064883294654   -5.59551e+02   0.00000e+00 
   @DF-UKS iter   1:  -559.59040773675054   -3.97589e-02   9.80540e-03 DIIS/ADIIS
   @DF-UKS iter   2:  -559.55486333737838    3.55444e-02   1.75856e-02 DIIS/ADIIS
   @DF-UKS iter   3:  -559.60484924012269   -4.99859e-02   3.10355e-03 DIIS/ADIIS
   @DF-UKS iter   4:  -559.60746924319710   -2.62000e-03   5.72891e-04 DIIS/ADIIS
   @DF-UKS iter   5:  -559.60755583095704   -8.65878e-05   4.53601e-05 DIIS
   @DF-UKS iter   6:  -559.60755640112461   -5.70168e-07   6.84637e-06 DIIS
   @DF-UKS iter   7:  -559.60755641555284   -1.44282e-08   3.42343e-07 DIIS
   @DF-UKS iter   8:  -559.60755641557955   -2.67164e-11   2.20171e-08 DIIS
  Energy and wave function converged.


  ==> Post-Iterations <==

   Electrons on quadrature grid:
      Nalpha   =   12.9999982409 ; deviation = -1.759e-06
      Nbeta    =   12.9999982409 ; deviation = -1.759e-06
      Ntotal   =   25.9999964819 ; deviation = -3.518e-06 

   @Spin Contamination Metric:   0.000000000E+00
   @S^2 Expected:                0.000000000E+00
   @S^2 Observed:                0.000000000E+00
   @S   Expected:                0.000000000E+00
   @S   Observed:                0.000000000E+00

    Orbital Energies [Eh]
    ---------------------

    Alpha Occupied:                                                       

       1A   -100.732714     2A    -24.311015     3A     -9.248541  
       4A     -7.081922     5A     -7.057994     6A     -7.057994  
       7A     -1.141245     8A     -0.759512     9A     -0.481268  
      10A     -0.408434    11A     -0.408434    12A     -0.275996  
      13A     -0.275996  

    Alpha Virtual:                                                        

      14A     -0.149062    15A      0.304597    16A      0.362194  
      17A      0.389913    18A      0.389913    19A      1.116740  
      20A      1.116740    21A      1.192300    22A      1.587287  

    Beta Occupied:                                                        

       1A   -100.732714     2A    -24.311015     3A     -9.248541  
       4A     -7.081922     5A     -7.057994     6A     -7.057994  
       7A     -1.141245     8A     -0.759512     9A     -0.481268  
      10A     -0.408434    11A     -0.408434    12A     -0.275996  
      13A     -0.275996  

    Beta Virtual:                                                         

      14A     -0.149062    15A      0.304597    16A      0.362194  
      17A      0.389913    18A      0.389913    19A      1.116740  
      20A      1.116740    21A      1.192300    22A      1.587287  

    Final Occupation by Irrep:
              A 
    DOCC [    13 ]
    SOCC [     0 ]
    NA   [    13 ]
    NB   [    13 ]

  @DF-UKS Final Energy:  -559.60755641557955

   => Energetics <=

    Nuclear Repulsion Energy =             49.6611322705822502
    One-Electron Energy =                -872.8335423788191747
    Two-Electron Energy =                 301.9787245461398015
    DFT Exchange-Correlation Energy =     -38.4138708534824076
    Empirical Dispersion Energy =           0.0000000000000000
    VV10 Nonlocal Energy =                  0.0000000000000000
    Total Energy =                       -559.6075564155795519

  UHF NO Occupations:
  HONO-2 :   11  A 2.0000000
  HONO-1 :   12  A 2.0000000
  HONO-0 :   13  A 2.0000000
  LUNO+0 :   14  A 0.0000000
  LUNO+1 :   15  A 0.0000000
  LUNO+2 :   16  A 0.0000000
  LUNO+3 :   17  A 0.0000000


Computation Completed


Properties will be evaluated at   0.000000,   0.000000,   0.000000 [a0]

Properties computed using the SCF density matrix


 Multipole Moments:

 ------------------------------------------------------------------------------------
     Multipole            Electronic (a.u.)      Nuclear  (a.u.)        Total (a.u.)
 ------------------------------------------------------------------------------------

 L = 1.  Multiply by 2.5417464519 to convert [e a0] to [Debye]
 Dipole X            :         -0.0000000            0.0000000           -0.0000000
 Dipole Y            :          0.0000000            0.0000000            0.0000000
 Dipole Z            :         -0.0854053            0.4711571            0.3857518
 Magnitude           :                                                    0.3857518

 ------------------------------------------------------------------------------------

*** tstop() called on NUS-LAPTOP at Wed Aug 16 17:03:18 2023
Module time:
	user time   =       0.39 seconds =       0.01 minutes
	system time =       0.01 seconds =       0.00 minutes
	total time  =          0 seconds =       0.00 minutes
Total time:
	user time   =       8.29 seconds =       0.14 minutes
	system time =       0.15 seconds =       0.00 minutes
	total time  =          8 seconds =       0.13 minutes
