
    -----------------------------------------------------------------------
          Psi4: An Open-Source Ab Initio Electronic Structure Package
                               Psi4 1.8 release

                         Git: Rev {} zzzzzzz 


    D. G. A. Smith, L. A. Burns, A. C. Simmonett, R. M. Parrish,
    M. C. Schieber, R. Galvelis, P. Kraus, H. Kruse, R. Di Remigio,
    A. Alenaizan, A. M. James, S. Lehtola, J. P. Misiewicz, M. Scheurer,
    R. A. Shaw, J. B. Schriber, Y. Xie, Z. L. Glick, D. A. Sirianni,
    J. S. O'Brien, J. M. Waldrop, A. Kumar, E. G. Hohenstein,
    B. P. Pritchard, B. R. Brooks, H. F. Schaefer III, A. Yu. Sokolov,
    K. Patkowski, A. E. DePrince III, U. Bozkaya, R. A. King,
    F. A. Evangelista, J. M. Turney, T. D. Crawford, C. D. Sherrill,
    J. Chem. Phys. 152(18) 184108 (2020). https://doi.org/10.1063/5.0006002

                            Additional Code Authors
    E. T. Seidl, C. L. Janssen, E. F. Valeev, M. L. Leininger,
    J. F. Gonthier, R. M. Richard, H. R. McAlexander, M. Saitow, X. Wang,
    P. Verma, M. H. Lechner, A. Jiang, S. Behnle, A. G. Heide,
    M. F. Herbst, and D. L. Poole

             Previous Authors, Complete List of Code Contributors,
                       and Citations for Specific Modules
    https://github.com/psi4/psi4/blob/master/codemeta.json
    https://github.com/psi4/psi4/graphs/contributors
    http://psicode.org/psi4manual/master/introduction.html#citing-psifour

    -----------------------------------------------------------------------


    Psi4 started on: Wednesday, 16 August 2023 05:03PM

    Process ID: 19122
    Host:       NUS-LAPTOP
    PSIDATADIR: /home/stephen/src/psi4conda/share/psi4
    Memory:     500.0 MiB
    Threads:    1
    
Scratch directory: /tmp/
   => Libint2 <=

    Primary   basis highest AM E, G, H:  5, 4, 3
    Auxiliary basis highest AM E, G, H:  6, 5, 4
    Onebody   basis highest AM E, G, H:  6, 5, 4
    Solid Harmonics ordering:            gaussian

*** tstart() called on NUS-LAPTOP
*** at Wed Aug 16 17:03:39 2023

   => Loading Basis Set <=

    Name: 6-31G
    Role: ORBITAL
    Keyword: BASIS
    atoms 1 entry H          line    26 file /home/stephen/src/psi4conda/share/psi4/basis/6-31g.gbs 
    atoms 2 entry C          line    87 file /home/stephen/src/psi4conda/share/psi4/basis/6-31g.gbs 
    atoms 3 entry O          line   117 file /home/stephen/src/psi4conda/share/psi4/basis/6-31g.gbs 


         ---------------------------------------------------------
                                   SCF
               by Justin Turney, Rob Parrish, Andy Simmonett
                          and Daniel G. A. Smith
                              UKS Reference
                        1 Threads,    500 MiB Core
         ---------------------------------------------------------

  ==> Geometry <==

    Molecular point group: c1
    Full point group: Cs

    Geometry (in Angstrom), charge = 0, multiplicity = 2:

       Center              X                  Y                   Z               Mass       
    ------------   -----------------  -----------------  -----------------  -----------------
         H           -1.572875236075     1.436241612690     0.000000000000     1.007825032230
         C            0.056623963925     0.596738952690     0.000000000000    12.000000000000
         O            0.056623963925    -0.538192787310     0.000000000000    15.994914619570

  Running in c1 symmetry.

  Rotational constants: A =      8.57371  B =      1.45301  C =      1.24245 [cm^-1]
  Rotational constants: A = 257033.31237  B =  43560.00386  C =  37247.57496 [MHz]
  Nuclear repulsion =   25.766448568942977

  Charge       = 0
  Multiplicity = 2
  Electrons    = 15
  Nalpha       = 8
  Nbeta        = 7

  ==> Algorithm <==

  SCF Algorithm Type is DF.
  DIIS enabled.
  MOM disabled.
  Fractional occupation disabled.
  Guess Type is SAD.
  Energy threshold   = 1.00e-08
  Density threshold  = 1.00e-06
  Integral threshold = 1.00e-12

  ==> Primary Basis <==

  Basis Set: 6-31G
    Blend: 6-31G
    Number of shells: 12
    Number of basis functions: 20
    Number of Cartesian functions: 20
    Spherical Harmonics?: false
    Max angular momentum: 1

  ==> DFT Potential <==

   => LibXC <=

    Version 6.1.0
    S. Lehtola, C. Steigemann, M. J.T. Oliveira, and M. A.L. Marques.,  SoftwareX 7, 1–5 (2018) (10.1016/j.softx.2017.11.002)

   => Composite Functional: PBE_CUSTOM <= 

    Perdew, Burke & Ernzerhof
    J. P. Perdew, K. Burke, and M. Ernzerhof.,  Phys. Rev. Lett. 77, 3865 (1996) (10.1103/PhysRevLett.77.3865)
    J. P. Perdew, K. Burke, and M. Ernzerhof.,  Phys. Rev. Lett. 78, 1396 (1997) (10.1103/PhysRevLett.78.1396)

    Deriv               =              1
    GGA                 =           TRUE
    Meta                =          FALSE

    Exchange Hybrid     =          FALSE
    MP2 Hybrid          =          FALSE

   => Exchange Functionals <=

    1.0000     XC_GGA_X_PBE

   => Correlation Functionals <=

    1.0000     XC_GGA_C_PBE

   => LibXC Density Thresholds  <==

    XC_GGA_C_PBE:  1.00E-12 
    XC_GGA_X_PBE:  1.00E-15 

   => Molecular Quadrature <=

    Radial Scheme          =       TREUTLER
    Pruning Scheme         =           NONE
    Nuclear Scheme         =       TREUTLER

    Blocking Scheme        =         OCTREE
    BS radius alpha        =              1
    Pruning alpha          =              1
    Radial Points          =             75
    Spherical Points       =            302
    Total Points           =          64979
    Total Blocks           =            548
    Max Points             =            256
    Max Functions          =             20
    Weights Tolerance      =       1.00E-15

   => Loading Basis Set <=

    Name: (6-31G AUX)
    Role: JKFIT
    Keyword: DF_BASIS_SCF
    atoms 1 entry H          line    51 file /home/stephen/src/psi4conda/share/psi4/basis/cc-pvdz-jkfit.gbs 
    atoms 2 entry C          line   121 file /home/stephen/src/psi4conda/share/psi4/basis/cc-pvdz-jkfit.gbs 
    atoms 3 entry O          line   221 file /home/stephen/src/psi4conda/share/psi4/basis/cc-pvdz-jkfit.gbs 

  ==> Integral Setup <==

  DFHelper Memory: AOs need 0.001 GiB; user supplied 0.331 GiB. 
  Using in-core AOs.

  ==> MemDFJK: Density-Fitted J/K Matrices <==

    J tasked:                   Yes
    K tasked:                    No
    wK tasked:                   No
    OpenMP threads:               1
    Memory [MiB]:               338
    Algorithm:                 Core
    Schwarz Cutoff:           1E-12
    Mask sparsity (%):       0.0000
    Fitting Condition:        1E-10

   => Auxiliary Basis Set <=

  Basis Set: (6-31G AUX)
    Blend: CC-PVDZ-JKFIT
    Number of shells: 57
    Number of basis functions: 187
    Number of Cartesian functions: 187
    Spherical Harmonics?: false
    Max angular momentum: 3

  Cached 100.0% of DFT collocation blocks in 0.035 [GiB].

  Minimum eigenvalue in the overlap matrix is 2.1957615923E-02.
  Reciprocal condition number of the overlap matrix is 6.8106200268E-03.
    Using symmetric orthogonalization.

  ==> Pre-Iterations <==

  SCF Guess: Superposition of Atomic Densities via on-the-fly atomic UHF (no occupation information).

   -------------------------
    Irrep   Nso     Nmo    
   -------------------------
     A         20      20 
   -------------------------
    Total      20      20
   -------------------------

  ==> Iterations <==

                           Total Energy        Delta E     RMS |[F,P]|

   @DF-UKS iter SAD:  -113.29655290464936   -1.13297e+02   0.00000e+00 
   @DF-UKS iter   1:  -113.53496443414434   -2.38412e-01   2.27939e-02 DIIS/ADIIS
   @DF-UKS iter   2:  -113.05940178195192    4.75563e-01   5.73192e-02 DIIS/ADIIS
   @DF-UKS iter   3:  -113.60827720264109   -5.48875e-01   9.12946e-03 DIIS/ADIIS
   @DF-UKS iter   4:  -113.63172676495161   -2.34496e-02   3.95839e-03 DIIS/ADIIS
   @DF-UKS iter   5:  -113.63605029993710   -4.32353e-03   5.51102e-04 DIIS/ADIIS
   @DF-UKS iter   6:  -113.63620005647113   -1.49757e-04   1.84057e-04 DIIS/ADIIS
   @DF-UKS iter   7:  -113.63621750804255   -1.74516e-05   4.62684e-05 DIIS
   @DF-UKS iter   8:  -113.63621833658465   -8.28542e-07   1.04463e-05 DIIS
   @DF-UKS iter   9:  -113.63621838087560   -4.42910e-08   1.71981e-06 DIIS
   @DF-UKS iter  10:  -113.63621838256537   -1.68977e-09   3.95001e-07 DIIS
  Energy and wave function converged.


  ==> Post-Iterations <==

   Electrons on quadrature grid:
      Nalpha   =    8.0000001589 ; deviation = 1.589e-07
      Nbeta    =    6.9999996854 ; deviation = -3.146e-07
      Ntotal   =   14.9999998443 ; deviation = -1.557e-07 

   @Spin Contamination Metric:   8.392465979E-03
   @S^2 Expected:                7.500000000E-01
   @S^2 Observed:                7.583924660E-01
   @S   Expected:                5.000000000E-01
   @S   Observed:                5.000000000E-01

    Orbital Energies [Eh]
    ---------------------

    Alpha Occupied:                                                       

       1A    -18.876177     2A    -10.027827     3A     -1.104891  
       4A     -0.503493     5A     -0.440068     6A     -0.431689  
       7A     -0.361935     8A     -0.222539  

    Alpha Virtual:                                                        

       9A     -0.073702    10A     -0.036274    11A      0.222967  
      12A      0.466496    13A      0.485720    14A      0.630022  
      15A      0.689268    16A      0.724189    17A      0.832795  
      18A      0.861262    19A      0.902371    20A      1.509859  

    Beta Occupied:                                                        

       1A    -18.873659     2A    -10.024961     3A     -1.100701  
       4A     -0.497915     5A     -0.428593     6A     -0.427576  
       7A     -0.333689  

    Beta Virtual:                                                         

       8A     -0.130773     9A     -0.067277    10A      0.004063  
      11A      0.228159    12A      0.471485    13A      0.505387  
      14A      0.644847    15A      0.718160    16A      0.809110  
      17A      0.837237    18A      0.863113    19A      0.932429  
      20A      1.515461  

    Final Occupation by Irrep:
              A 
    DOCC [     7 ]
    SOCC [     1 ]
    NA   [     8 ]
    NB   [     7 ]

  @DF-UKS Final Energy:  -113.63621838256537

   => Energetics <=

    Nuclear Repulsion Energy =             25.7664485689429767
    One-Electron Energy =                -205.0781502759420505
    Two-Electron Energy =                  79.7549423163183349
    DFT Exchange-Correlation Energy =     -14.0794589918846142
    Empirical Dispersion Energy =           0.0000000000000000
    VV10 Nonlocal Energy =                  0.0000000000000000
    Total Energy =                       -113.6362183825653744

  UHF NO Occupations:
  HONO-2 :    6  A 1.9999715
  HONO-1 :    7  A 1.9958426
  HONO-0 :    8  A 1.0000000
  LUNO+0 :    9  A 0.0041574
  LUNO+1 :   10  A 0.0000285
  LUNO+2 :   11  A 0.0000161
  LUNO+3 :   12  A 0.0000022


Computation Completed


Properties will be evaluated at   0.000000,   0.000000,   0.000000 [a0]

Properties computed using the SCF density matrix


 Multipole Moments:

 ------------------------------------------------------------------------------------
     Multipole            Electronic (a.u.)      Nuclear  (a.u.)        Total (a.u.)
 ------------------------------------------------------------------------------------

 L = 1.  Multiply by 2.5417464519 to convert [e a0] to [Debye]
 Dipole X            :          1.4261464           -1.4742505           -0.0481040
 Dipole Y            :         -1.2995284            1.3438467            0.0443182
 Dipole Z            :         -0.0000000            0.0000000           -0.0000000
 Magnitude           :                                                    0.0654072

 ------------------------------------------------------------------------------------

*** tstop() called on NUS-LAPTOP at Wed Aug 16 17:03:40 2023
Module time:
	user time   =       0.61 seconds =       0.01 minutes
	system time =       0.01 seconds =       0.00 minutes
	total time  =          1 seconds =       0.02 minutes
Total time:
	user time   =      29.65 seconds =       0.49 minutes
	system time =       0.45 seconds =       0.01 minutes
	total time  =         30 seconds =       0.50 minutes
