
    -----------------------------------------------------------------------
          Psi4: An Open-Source Ab Initio Electronic Structure Package
                               Psi4 1.8 release

                         Git: Rev {} zzzzzzz 


    D. G. A. Smith, L. A. Burns, A. C. Simmonett, R. M. Parrish,
    M. C. Schieber, R. Galvelis, P. Kraus, H. Kruse, R. Di Remigio,
    A. Alenaizan, A. M. James, S. Lehtola, J. P. Misiewicz, M. Scheurer,
    R. A. Shaw, J. B. Schriber, Y. Xie, Z. L. Glick, D. A. Sirianni,
    J. S. O'Brien, J. M. Waldrop, A. Kumar, E. G. Hohenstein,
    B. P. Pritchard, B. R. Brooks, H. F. Schaefer III, A. Yu. Sokolov,
    K. Patkowski, A. E. DePrince III, U. Bozkaya, R. A. King,
    F. A. Evangelista, J. M. Turney, T. D. Crawford, C. D. Sherrill,
    J. Chem. Phys. 152(18) 184108 (2020). https://doi.org/10.1063/5.0006002

                            Additional Code Authors
    E. T. Seidl, C. L. Janssen, E. F. Valeev, M. L. Leininger,
    J. F. Gonthier, R. M. Richard, H. R. McAlexander, M. Saitow, X. Wang,
    P. Verma, M. H. Lechner, A. Jiang, S. Behnle, A. G. Heide,
    M. F. Herbst, and D. L. Poole

             Previous Authors, Complete List of Code Contributors,
                       and Citations for Specific Modules
    https://github.com/psi4/psi4/blob/master/codemeta.json
    https://github.com/psi4/psi4/graphs/contributors
    http://psicode.org/psi4manual/master/introduction.html#citing-psifour

    -----------------------------------------------------------------------


    Psi4 started on: Wednesday, 16 August 2023 05:03PM

    Process ID: 19122
    Host:       NUS-LAPTOP
    PSIDATADIR: /home/stephen/src/psi4conda/share/psi4
    Memory:     500.0 MiB
    Threads:    1
    
Scratch directory: /tmp/
   => Libint2 <=

    Primary   basis highest AM E, G, H:  5, 4, 3
    Auxiliary basis highest AM E, G, H:  6, 5, 4
    Onebody   basis highest AM E, G, H:  6, 5, 4
    Solid Harmonics ordering:            gaussian

*** tstart() called on NUS-LAPTOP
*** at Wed Aug 16 17:03:22 2023

   => Loading Basis Set <=

    Name: 6-31G
    Role: ORBITAL
    Keyword: BASIS
    atoms 1, 6 entry F          line   132 file /home/stephen/src/psi4conda/share/psi4/basis/6-31g.gbs 
    atoms 2    entry C          line    87 file /home/stephen/src/psi4conda/share/psi4/basis/6-31g.gbs 
    atoms 3-5  entry H          line    26 file /home/stephen/src/psi4conda/share/psi4/basis/6-31g.gbs 


         ---------------------------------------------------------
                                   SCF
               by Justin Turney, Rob Parrish, Andy Simmonett
                          and Daniel G. A. Smith
                              UKS Reference
                        1 Threads,    500 MiB Core
         ---------------------------------------------------------

  ==> Geometry <==

    Molecular point group: c1
    Full point group: C3v

    Geometry (in Angstrom), charge = -1, multiplicity = 1:

       Center              X                  Y                   Z               Mass       
    ------------   -----------------  -----------------  -----------------  -----------------
         F            0.000000000000    -1.857533179338     0.000000000000    18.998403162730
         C            0.000000000000    -0.431778859338     0.000000000000    12.000000000000
         H            0.511791130000    -0.083748509338     0.886448240000     1.007825032230
         H            0.511791130000    -0.083748509338    -0.886448240000     1.007825032230
         H           -1.023582260000    -0.083748509338     0.000000000000     1.007825032230
         F            0.000000000000     2.143586580662     0.000000000000    18.998403162730

  Running in c1 symmetry.

  Rotational constants: A =      5.32163  B =      0.10758  C =      0.10758 [cm^-1]
  Rotational constants: A = 159538.42590  B =   3225.30400  C =   3225.30400 [MHz]
  Nuclear repulsion =   64.362230165713413

  Charge       = -1
  Multiplicity = 1
  Electrons    = 28
  Nalpha       = 14
  Nbeta        = 14

  ==> Algorithm <==

  SCF Algorithm Type is DF.
  DIIS enabled.
  MOM disabled.
  Fractional occupation disabled.
  Guess Type is SAD.
  Energy threshold   = 1.00e-08
  Density threshold  = 1.00e-06
  Integral threshold = 1.00e-12

  ==> Primary Basis <==

  Basis Set: 6-31G
    Blend: 6-31G
    Number of shells: 21
    Number of basis functions: 33
    Number of Cartesian functions: 33
    Spherical Harmonics?: false
    Max angular momentum: 1

  ==> DFT Potential <==

   => LibXC <=

    Version 6.1.0
    S. Lehtola, C. Steigemann, M. J.T. Oliveira, and M. A.L. Marques.,  SoftwareX 7, 1–5 (2018) (10.1016/j.softx.2017.11.002)

   => Composite Functional: PBE_CUSTOM <= 

    Perdew, Burke & Ernzerhof
    J. P. Perdew, K. Burke, and M. Ernzerhof.,  Phys. Rev. Lett. 77, 3865 (1996) (10.1103/PhysRevLett.77.3865)
    J. P. Perdew, K. Burke, and M. Ernzerhof.,  Phys. Rev. Lett. 78, 1396 (1997) (10.1103/PhysRevLett.78.1396)

    Deriv               =              1
    GGA                 =           TRUE
    Meta                =          FALSE

    Exchange Hybrid     =          FALSE
    MP2 Hybrid          =          FALSE

   => Exchange Functionals <=

    1.0000     XC_GGA_X_PBE

   => Correlation Functionals <=

    1.0000     XC_GGA_C_PBE

   => LibXC Density Thresholds  <==

    XC_GGA_C_PBE:  1.00E-12 
    XC_GGA_X_PBE:  1.00E-15 

   => Molecular Quadrature <=

    Radial Scheme          =       TREUTLER
    Pruning Scheme         =           NONE
    Nuclear Scheme         =       TREUTLER

    Blocking Scheme        =         OCTREE
    BS radius alpha        =              1
    Pruning alpha          =              1
    Radial Points          =             75
    Spherical Points       =            302
    Total Points           =         130419
    Total Blocks           =           1055
    Max Points             =            256
    Max Functions          =             32
    Weights Tolerance      =       1.00E-15

   => Loading Basis Set <=

    Name: (6-31G AUX)
    Role: JKFIT
    Keyword: DF_BASIS_SCF
    atoms 1, 6 entry F          line   271 file /home/stephen/src/psi4conda/share/psi4/basis/cc-pvdz-jkfit.gbs 
    atoms 2    entry C          line   121 file /home/stephen/src/psi4conda/share/psi4/basis/cc-pvdz-jkfit.gbs 
    atoms 3-5  entry H          line    51 file /home/stephen/src/psi4conda/share/psi4/basis/cc-pvdz-jkfit.gbs 

  ==> Integral Setup <==

  DFHelper Memory: AOs need 0.003 GiB; user supplied 0.259 GiB. 
  Using in-core AOs.

  ==> MemDFJK: Density-Fitted J/K Matrices <==

    J tasked:                   Yes
    K tasked:                    No
    wK tasked:                   No
    OpenMP threads:               1
    Memory [MiB]:               265
    Algorithm:                 Core
    Schwarz Cutoff:           1E-12
    Mask sparsity (%):       4.7750
    Fitting Condition:        1E-10

   => Auxiliary Basis Set <=

  Basis Set: (6-31G AUX)
    Blend: CC-PVDZ-JKFIT
    Number of shells: 99
    Number of basis functions: 318
    Number of Cartesian functions: 318
    Spherical Harmonics?: false
    Max angular momentum: 3

  Cached 100.0% of DFT collocation blocks in 0.107 [GiB].

  Minimum eigenvalue in the overlap matrix is 1.9545011360E-02.
  Reciprocal condition number of the overlap matrix is 4.6871854214E-03.
    Using symmetric orthogonalization.

  ==> Pre-Iterations <==

  SCF Guess: Superposition of Atomic Densities via on-the-fly atomic UHF (no occupation information).

   -------------------------
    Irrep   Nso     Nmo    
   -------------------------
     A         33      33 
   -------------------------
    Total      33      33
   -------------------------

  ==> Iterations <==

                           Total Energy        Delta E     RMS |[F,P]|

   @DF-UKS iter SAD:  -238.62048068677657   -2.38620e+02   0.00000e+00 
   @DF-UKS iter   1:  -238.99658798634050   -3.76107e-01   2.42986e-02 DIIS/ADIIS
   @DF-UKS iter   2:  -232.58089126887069    6.41570e+00   1.00881e-01 ADIIS
   @DF-UKS iter   3:  -238.99075908038051   -6.40987e+00   2.44104e-02 DIIS/ADIIS
   @DF-UKS iter   4:  -239.24317461076541   -2.52416e-01   3.78755e-03 DIIS/ADIIS
   @DF-UKS iter   5:  -239.25062365343854   -7.44904e-03   7.41916e-04 DIIS/ADIIS
   @DF-UKS iter   6:  -239.25086355256445   -2.39899e-04   4.08214e-04 DIIS/ADIIS
   @DF-UKS iter   7:  -239.25093470046284   -7.11479e-05   3.33488e-05 DIIS
   @DF-UKS iter   8:  -239.25093605230495   -1.35184e-06   4.47889e-06 DIIS
   @DF-UKS iter   9:  -239.25093606335162   -1.10467e-08   7.16920e-07 DIIS
   @DF-UKS iter  10:  -239.25093606361833   -2.66709e-10   3.62116e-08 DIIS
  Energy and wave function converged.


  ==> Post-Iterations <==

   Electrons on quadrature grid:
      Nalpha   =   14.0000052228 ; deviation = 5.223e-06
      Nbeta    =   14.0000052228 ; deviation = 5.223e-06
      Ntotal   =   28.0000104456 ; deviation = 1.045e-05 

   @Spin Contamination Metric:  -8.171241461E-14
   @S^2 Expected:                0.000000000E+00
   @S^2 Observed:               -8.171241461E-14
   @S   Expected:                0.000000000E+00
   @S   Observed:                0.000000000E+00

    Orbital Energies [Eh]
    ---------------------

    Alpha Occupied:                                                       

       1A    -24.030617     2A    -23.754383     3A     -9.733262  
       4A     -0.863760     5A     -0.537001     6A     -0.413596  
       7A     -0.205965     8A     -0.205385     9A     -0.205385  
      10A     -0.072859    11A     -0.072859    12A      0.131892  
      13A      0.143499    14A      0.143499  

    Alpha Virtual:                                                        

      15A      0.277656    16A      0.315453    17A      0.347747  
      18A      0.347748    19A      0.721888    20A      0.721889  
      21A      0.729057    22A      1.055026    23A      1.066285  
      24A      1.066286    25A      1.171155    26A      1.418510  
      27A      1.418511    28A      1.427347    29A      1.549865  
      30A      1.549866    31A      1.605472    32A      1.928644  
      33A      2.177703  

    Beta Occupied:                                                        

       1A    -24.030617     2A    -23.754383     3A     -9.733262  
       4A     -0.863760     5A     -0.537001     6A     -0.413596  
       7A     -0.205965     8A     -0.205385     9A     -0.205385  
      10A     -0.072859    11A     -0.072859    12A      0.131892  
      13A      0.143499    14A      0.143499  

    Beta Virtual:                                                         

      15A      0.277656    16A      0.315453    17A      0.347747  
      18A      0.347748    19A      0.721888    20A      0.721889  
      21A      0.729057    22A      1.055026    23A      1.066285  
      24A      1.066286    25A      1.171155    26A      1.418510  
      27A      1.418511    28A      1.427347    29A      1.549865  
      30A      1.549866    31A      1.605472    32A      1.928644  
      33A      2.177703  

    Final Occupation by Irrep:
              A 
    DOCC [    14 ]
    SOCC [     0 ]
    NA   [    14 ]
    NB   [    14 ]

  @DF-UKS Final Energy:  -239.25093606361833

   => Energetics <=

    Nuclear Repulsion Energy =             64.3622301657134130
    One-Electron Energy =                -468.2099973319540140
    Two-Electron Energy =                 192.1661132305561637
    DFT Exchange-Correlation Energy =     -27.5692821279338744
    Empirical Dispersion Energy =           0.0000000000000000
    VV10 Nonlocal Energy =                  0.0000000000000000
    Total Energy =                       -239.2509360636183260

  UHF NO Occupations:
  HONO-2 :   12  A 2.0000000
  HONO-1 :   13  A 2.0000000
  HONO-0 :   14  A 2.0000000
  LUNO+0 :   15  A 0.0000000
  LUNO+1 :   16  A 0.0000000
  LUNO+2 :   17  A 0.0000000
  LUNO+3 :   18  A 0.0000000


Computation Completed


Properties will be evaluated at   0.000000,   0.000000,   0.000000 [a0]

Properties computed using the SCF density matrix


 Multipole Moments:

 ------------------------------------------------------------------------------------
     Multipole            Electronic (a.u.)      Nuclear  (a.u.)        Total (a.u.)
 ------------------------------------------------------------------------------------

 L = 1.  Multiply by 2.5417464519 to convert [e a0] to [Debye]
 Dipole X            :         -0.0000012            0.0000000           -0.0000012
 Dipole Y            :         -1.6202344           -0.5053847           -2.1256191
 Dipole Z            :         -0.0000000            0.0000000           -0.0000000
 Magnitude           :                                                    2.1256191

 ------------------------------------------------------------------------------------

*** tstop() called on NUS-LAPTOP at Wed Aug 16 17:03:23 2023
Module time:
	user time   =       1.42 seconds =       0.02 minutes
	system time =       0.02 seconds =       0.00 minutes
	total time  =          1 seconds =       0.02 minutes
Total time:
	user time   =      12.97 seconds =       0.22 minutes
	system time =       0.21 seconds =       0.00 minutes
	total time  =         13 seconds =       0.22 minutes
