
    -----------------------------------------------------------------------
          Psi4: An Open-Source Ab Initio Electronic Structure Package
                               Psi4 1.8 release

                         Git: Rev {} zzzzzzz 


    D. G. A. Smith, L. A. Burns, A. C. Simmonett, R. M. Parrish,
    M. C. Schieber, R. Galvelis, P. Kraus, H. Kruse, R. Di Remigio,
    A. Alenaizan, A. M. James, S. Lehtola, J. P. Misiewicz, M. Scheurer,
    R. A. Shaw, J. B. Schriber, Y. Xie, Z. L. Glick, D. A. Sirianni,
    J. S. O'Brien, J. M. Waldrop, A. Kumar, E. G. Hohenstein,
    B. P. Pritchard, B. R. Brooks, H. F. Schaefer III, A. Yu. Sokolov,
    K. Patkowski, A. E. DePrince III, U. Bozkaya, R. A. King,
    F. A. Evangelista, J. M. Turney, T. D. Crawford, C. D. Sherrill,
    J. Chem. Phys. 152(18) 184108 (2020). https://doi.org/10.1063/5.0006002

                            Additional Code Authors
    E. T. Seidl, C. L. Janssen, E. F. Valeev, M. L. Leininger,
    J. F. Gonthier, R. M. Richard, H. R. McAlexander, M. Saitow, X. Wang,
    P. Verma, M. H. Lechner, A. Jiang, S. Behnle, A. G. Heide,
    M. F. Herbst, and D. L. Poole

             Previous Authors, Complete List of Code Contributors,
                       and Citations for Specific Modules
    https://github.com/psi4/psi4/blob/master/codemeta.json
    https://github.com/psi4/psi4/graphs/contributors
    http://psicode.org/psi4manual/master/introduction.html#citing-psifour

    -----------------------------------------------------------------------


    Psi4 started on: Wednesday, 16 August 2023 05:03PM

    Process ID: 19122
    Host:       NUS-LAPTOP
    PSIDATADIR: /home/stephen/src/psi4conda/share/psi4
    Memory:     500.0 MiB
    Threads:    1
    
Scratch directory: /tmp/
   => Libint2 <=

    Primary   basis highest AM E, G, H:  5, 4, 3
    Auxiliary basis highest AM E, G, H:  6, 5, 4
    Onebody   basis highest AM E, G, H:  6, 5, 4
    Solid Harmonics ordering:            gaussian

*** tstart() called on NUS-LAPTOP
*** at Wed Aug 16 17:04:13 2023

   => Loading Basis Set <=

    Name: 6-31G
    Role: ORBITAL
    Keyword: BASIS
    atoms 1, 3-4 entry H          line    26 file /home/stephen/src/psi4conda/share/psi4/basis/6-31g.gbs 
    atoms 2      entry S          line   272 file /home/stephen/src/psi4conda/share/psi4/basis/6-31g.gbs 


         ---------------------------------------------------------
                                   SCF
               by Justin Turney, Rob Parrish, Andy Simmonett
                          and Daniel G. A. Smith
                              UKS Reference
                        1 Threads,    500 MiB Core
         ---------------------------------------------------------

  ==> Geometry <==

    Molecular point group: c1
    Full point group: Cs

    Geometry (in Angstrom), charge = 0, multiplicity = 2:

       Center              X                  Y                   Z               Mass       
    ------------   -----------------  -----------------  -----------------  -----------------
         H            1.262098359951    -0.321145942030     0.000000000000     1.007825032230
         S            0.000000029951     0.122104037970     0.000000000000    31.972071174400
         H           -0.500576240049    -1.216496382030     0.000000000000     1.007825032230
         H           -0.761523070049    -2.335965562030     0.000000000000     1.007825032230

  Running in c1 symmetry.

  Rotational constants: A =      9.60059  B =      2.04138  C =      1.68343 [cm^-1]
  Rotational constants: A = 287818.47503  B =  61199.02850  C =  50467.98765 [MHz]
  Nuclear repulsion =   16.457544292863510

  Charge       = 0
  Multiplicity = 2
  Electrons    = 19
  Nalpha       = 10
  Nbeta        = 9

  ==> Algorithm <==

  SCF Algorithm Type is DF.
  DIIS enabled.
  MOM disabled.
  Fractional occupation disabled.
  Guess Type is SAD.
  Energy threshold   = 1.00e-08
  Density threshold  = 1.00e-06
  Integral threshold = 1.00e-12

  ==> Primary Basis <==

  Basis Set: 6-31G
    Blend: 6-31G
    Number of shells: 13
    Number of basis functions: 19
    Number of Cartesian functions: 19
    Spherical Harmonics?: false
    Max angular momentum: 1

  ==> DFT Potential <==

   => LibXC <=

    Version 6.1.0
    S. Lehtola, C. Steigemann, M. J.T. Oliveira, and M. A.L. Marques.,  SoftwareX 7, 1–5 (2018) (10.1016/j.softx.2017.11.002)

   => Composite Functional: PBE_CUSTOM <= 

    Perdew, Burke & Ernzerhof
    J. P. Perdew, K. Burke, and M. Ernzerhof.,  Phys. Rev. Lett. 77, 3865 (1996) (10.1103/PhysRevLett.77.3865)
    J. P. Perdew, K. Burke, and M. Ernzerhof.,  Phys. Rev. Lett. 78, 1396 (1997) (10.1103/PhysRevLett.78.1396)

    Deriv               =              1
    GGA                 =           TRUE
    Meta                =          FALSE

    Exchange Hybrid     =          FALSE
    MP2 Hybrid          =          FALSE

   => Exchange Functionals <=

    1.0000     XC_GGA_X_PBE

   => Correlation Functionals <=

    1.0000     XC_GGA_C_PBE

   => LibXC Density Thresholds  <==

    XC_GGA_C_PBE:  1.00E-12 
    XC_GGA_X_PBE:  1.00E-15 

   => Molecular Quadrature <=

    Radial Scheme          =       TREUTLER
    Pruning Scheme         =           NONE
    Nuclear Scheme         =       TREUTLER

    Blocking Scheme        =         OCTREE
    BS radius alpha        =              1
    Pruning alpha          =              1
    Radial Points          =             75
    Spherical Points       =            302
    Total Points           =          86960
    Total Blocks           =            711
    Max Points             =            256
    Max Functions          =             19
    Weights Tolerance      =       1.00E-15

   => Loading Basis Set <=

    Name: (6-31G AUX)
    Role: JKFIT
    Keyword: DF_BASIS_SCF
    atoms 1, 3-4 entry H          line    51 file /home/stephen/src/psi4conda/share/psi4/basis/cc-pvdz-jkfit.gbs 
    atoms 2      entry S          line   593 file /home/stephen/src/psi4conda/share/psi4/basis/cc-pvdz-jkfit.gbs 

  ==> Integral Setup <==

  DFHelper Memory: AOs need 0.001 GiB; user supplied 0.323 GiB. 
  Using in-core AOs.

  ==> MemDFJK: Density-Fitted J/K Matrices <==

    J tasked:                   Yes
    K tasked:                    No
    wK tasked:                   No
    OpenMP threads:               1
    Memory [MiB]:               330
    Algorithm:                 Core
    Schwarz Cutoff:           1E-12
    Mask sparsity (%):       0.0000
    Fitting Condition:        1E-10

   => Auxiliary Basis Set <=

  Basis Set: (6-31G AUX)
    Blend: CC-PVDZ-JKFIT
    Number of shells: 63
    Number of basis functions: 205
    Number of Cartesian functions: 205
    Spherical Harmonics?: false
    Max angular momentum: 3

  Cached 100.0% of DFT collocation blocks in 0.043 [GiB].

  Minimum eigenvalue in the overlap matrix is 2.4678065249E-02.
  Reciprocal condition number of the overlap matrix is 6.8183104325E-03.
    Using symmetric orthogonalization.

  ==> Pre-Iterations <==

  SCF Guess: Superposition of Atomic Densities via on-the-fly atomic UHF (no occupation information).

   -------------------------
    Irrep   Nso     Nmo    
   -------------------------
     A         19      19 
   -------------------------
    Total      19      19
   -------------------------

  ==> Iterations <==

                           Total Energy        Delta E     RMS |[F,P]|

   @DF-UKS iter SAD:  -399.54015440708866   -3.99540e+02   0.00000e+00 
   @DF-UKS iter   1:  -399.59688457054381   -5.67302e-02   1.49915e-02 DIIS/ADIIS
   @DF-UKS iter   2:  -399.31826669300216    2.78618e-01   2.92712e-02 DIIS/ADIIS
   @DF-UKS iter   3:  -399.65453462268403   -3.36268e-01   3.27934e-03 DIIS/ADIIS
   @DF-UKS iter   4:  -399.65890561388881   -4.37099e-03   9.11470e-04 DIIS/ADIIS
   @DF-UKS iter   5:  -399.65925279754458   -3.47184e-04   3.57182e-04 DIIS/ADIIS
   @DF-UKS iter   6:  -399.65930117619791   -4.83787e-05   8.95114e-05 DIIS
   @DF-UKS iter   7:  -399.65930417354315   -2.99735e-06   5.70010e-06 DIIS
   @DF-UKS iter   8:  -399.65930418520173   -1.16586e-08   1.14715e-06 DIIS
   @DF-UKS iter   9:  -399.65930418573566   -5.33930e-10   1.99897e-07 DIIS
  Energy and wave function converged.


  ==> Post-Iterations <==

   Electrons on quadrature grid:
      Nalpha   =   10.0000051523 ; deviation = 5.152e-06
      Nbeta    =    9.0000048803 ; deviation = 4.880e-06
      Ntotal   =   19.0000100326 ; deviation = 1.003e-05 

   @Spin Contamination Metric:   4.512115569E-03
   @S^2 Expected:                7.500000000E-01
   @S^2 Observed:                7.545121156E-01
   @S   Expected:                5.000000000E-01
   @S   Observed:                5.000000000E-01

    Orbital Energies [Eh]
    ---------------------

    Alpha Occupied:                                                       

       1A    -88.054647     2A     -7.688446     3A     -5.712658  
       4A     -5.708669     5A     -5.696755     6A     -0.702239  
       7A     -0.445894     8A     -0.350602     9A     -0.250288  
      10A     -0.229556  

    Alpha Virtual:                                                        

      11A      0.009597    12A      0.073908    13A      0.301622  
      14A      0.320448    15A      0.331099    16A      0.333181  
      17A      0.699374    18A      0.779617    19A      0.936057  

    Beta Occupied:                                                        

       1A    -88.052662     2A     -7.686409     3A     -5.708929  
       4A     -5.705486     5A     -5.695466     6A     -0.691118  
       7A     -0.426207     8A     -0.334106     9A     -0.224029  

    Beta Virtual:                                                         

      10A     -0.165416    11A      0.014393    12A      0.103723  
      13A      0.305546    14A      0.328774    15A      0.336166  
      16A      0.348185    17A      0.772438    18A      0.828354  
      19A      0.936955  

    Final Occupation by Irrep:
              A 
    DOCC [     9 ]
    SOCC [     1 ]
    NA   [    10 ]
    NB   [     9 ]

  @DF-UKS Final Energy:  -399.65930418573566

   => Energetics <=

    Nuclear Repulsion Energy =             16.4575442928635098
    One-Electron Energy =                -584.0891345573591025
    Two-Electron Energy =                 194.5067297896875402
    DFT Exchange-Correlation Energy =     -26.5344437109276328
    Empirical Dispersion Energy =           0.0000000000000000
    VV10 Nonlocal Energy =                  0.0000000000000000
    Total Energy =                       -399.6593041857356639

  UHF NO Occupations:
  HONO-2 :    8  A 1.9999594
  HONO-1 :    9  A 1.9978137
  HONO-0 :   10  A 1.0000000
  LUNO+0 :   11  A 0.0021863
  LUNO+1 :   12  A 0.0000406
  LUNO+2 :   13  A 0.0000220
  LUNO+3 :   14  A 0.0000095


Computation Completed


Properties will be evaluated at   0.000000,   0.000000,   0.000000 [a0]

Properties computed using the SCF density matrix


 Multipole Moments:

 ------------------------------------------------------------------------------------
     Multipole            Electronic (a.u.)      Nuclear  (a.u.)        Total (a.u.)
 ------------------------------------------------------------------------------------

 L = 1.  Multiply by 2.5417464519 to convert [e a0] to [Debye]
 Dipole X            :          0.3540155           -0.0000009            0.3540146
 Dipole Y            :          3.0326823           -3.6281670           -0.5954847
 Dipole Z            :          0.0000000            0.0000000            0.0000000
 Magnitude           :                                                    0.6927686

 ------------------------------------------------------------------------------------

*** tstop() called on NUS-LAPTOP at Wed Aug 16 17:04:14 2023
Module time:
	user time   =       0.91 seconds =       0.02 minutes
	system time =       0.03 seconds =       0.00 minutes
	total time  =          1 seconds =       0.02 minutes
Total time:
	user time   =      63.21 seconds =       1.05 minutes
	system time =       0.98 seconds =       0.02 minutes
	total time  =         64 seconds =       1.07 minutes
