
    -----------------------------------------------------------------------
          Psi4: An Open-Source Ab Initio Electronic Structure Package
                               Psi4 1.8 release

                         Git: Rev {} zzzzzzz 


    D. G. A. Smith, L. A. Burns, A. C. Simmonett, R. M. Parrish,
    M. C. Schieber, R. Galvelis, P. Kraus, H. Kruse, R. Di Remigio,
    A. Alenaizan, A. M. James, S. Lehtola, J. P. Misiewicz, M. Scheurer,
    R. A. Shaw, J. B. Schriber, Y. Xie, Z. L. Glick, D. A. Sirianni,
    J. S. O'Brien, J. M. Waldrop, A. Kumar, E. G. Hohenstein,
    B. P. Pritchard, B. R. Brooks, H. F. Schaefer III, A. Yu. Sokolov,
    K. Patkowski, A. E. DePrince III, U. Bozkaya, R. A. King,
    F. A. Evangelista, J. M. Turney, T. D. Crawford, C. D. Sherrill,
    J. Chem. Phys. 152(18) 184108 (2020). https://doi.org/10.1063/5.0006002

                            Additional Code Authors
    E. T. Seidl, C. L. Janssen, E. F. Valeev, M. L. Leininger,
    J. F. Gonthier, R. M. Richard, H. R. McAlexander, M. Saitow, X. Wang,
    P. Verma, M. H. Lechner, A. Jiang, S. Behnle, A. G. Heide,
    M. F. Herbst, and D. L. Poole

             Previous Authors, Complete List of Code Contributors,
                       and Citations for Specific Modules
    https://github.com/psi4/psi4/blob/master/codemeta.json
    https://github.com/psi4/psi4/graphs/contributors
    http://psicode.org/psi4manual/master/introduction.html#citing-psifour

    -----------------------------------------------------------------------


    Psi4 started on: Wednesday, 16 August 2023 05:03PM

    Process ID: 19122
    Host:       NUS-LAPTOP
    PSIDATADIR: /home/stephen/src/psi4conda/share/psi4
    Memory:     500.0 MiB
    Threads:    1
    
Scratch directory: /tmp/
   => Libint2 <=

    Primary   basis highest AM E, G, H:  5, 4, 3
    Auxiliary basis highest AM E, G, H:  6, 5, 4
    Onebody   basis highest AM E, G, H:  6, 5, 4
    Solid Harmonics ordering:            gaussian

*** tstart() called on NUS-LAPTOP
*** at Wed Aug 16 17:03:45 2023

   => Loading Basis Set <=

    Name: 6-31G
    Role: ORBITAL
    Keyword: BASIS
    atoms 1-2, 7    entry C          line    87 file /home/stephen/src/psi4conda/share/psi4/basis/6-31g.gbs 
    atoms 3-6, 8-10 entry H          line    26 file /home/stephen/src/psi4conda/share/psi4/basis/6-31g.gbs 


         ---------------------------------------------------------
                                   SCF
               by Justin Turney, Rob Parrish, Andy Simmonett
                          and Daniel G. A. Smith
                              UKS Reference
                        1 Threads,    500 MiB Core
         ---------------------------------------------------------

  ==> Geometry <==

    Molecular point group: c1
    Full point group: C1

    Geometry (in Angstrom), charge = 0, multiplicity = 2:

       Center              X                  Y                   Z               Mass       
    ------------   -----------------  -----------------  -----------------  -----------------
         C           -0.438570266152     0.640423160755    -0.000041599073    12.000000000000
         C           -1.349056236152    -0.369396779245    -0.000000599073    12.000000000000
         H           -0.198482016152     1.159064490755    -0.917263859073     1.007825032230
         H           -0.198779946152     1.159249700755     0.917171400927     1.007825032230
         H           -1.693566496152    -0.815322279245     0.922521390927     1.007825032230
         H           -1.693375996152    -0.815645079245    -0.922433919073     1.007825032230
         C            1.645578983848    -0.247700829245     0.000036400927    12.000000000000
         H            2.228742893848     0.663161910755    -0.001267599073     1.007825032230
         H            1.622988403848    -0.815131779245    -0.918629139073     1.007825032230
         H            1.623808623848    -0.813110319245     0.919970750927     1.007825032230

  Running in c1 symmetry.

  Rotational constants: A =      0.92542  B =      0.21624  C =      0.19615 [cm^-1]
  Rotational constants: A =  27743.43048  B =   6482.77944  C =   5880.29965 [MHz]
  Nuclear repulsion =   70.268353474158047

  Charge       = 0
  Multiplicity = 2
  Electrons    = 25
  Nalpha       = 13
  Nbeta        = 12

  ==> Algorithm <==

  SCF Algorithm Type is DF.
  DIIS enabled.
  MOM disabled.
  Fractional occupation disabled.
  Guess Type is SAD.
  Energy threshold   = 1.00e-08
  Density threshold  = 1.00e-06
  Integral threshold = 1.00e-12

  ==> Primary Basis <==

  Basis Set: 6-31G
    Blend: 6-31G
    Number of shells: 29
    Number of basis functions: 41
    Number of Cartesian functions: 41
    Spherical Harmonics?: false
    Max angular momentum: 1

  ==> DFT Potential <==

   => LibXC <=

    Version 6.1.0
    S. Lehtola, C. Steigemann, M. J.T. Oliveira, and M. A.L. Marques.,  SoftwareX 7, 1–5 (2018) (10.1016/j.softx.2017.11.002)

   => Composite Functional: PBE_CUSTOM <= 

    Perdew, Burke & Ernzerhof
    J. P. Perdew, K. Burke, and M. Ernzerhof.,  Phys. Rev. Lett. 77, 3865 (1996) (10.1103/PhysRevLett.77.3865)
    J. P. Perdew, K. Burke, and M. Ernzerhof.,  Phys. Rev. Lett. 78, 1396 (1997) (10.1103/PhysRevLett.78.1396)

    Deriv               =              1
    GGA                 =           TRUE
    Meta                =          FALSE

    Exchange Hybrid     =          FALSE
    MP2 Hybrid          =          FALSE

   => Exchange Functionals <=

    1.0000     XC_GGA_X_PBE

   => Correlation Functionals <=

    1.0000     XC_GGA_C_PBE

   => LibXC Density Thresholds  <==

    XC_GGA_C_PBE:  1.00E-12 
    XC_GGA_X_PBE:  1.00E-15 

   => Molecular Quadrature <=

    Radial Scheme          =       TREUTLER
    Pruning Scheme         =           NONE
    Nuclear Scheme         =       TREUTLER

    Blocking Scheme        =         OCTREE
    BS radius alpha        =              1
    Pruning alpha          =              1
    Radial Points          =             75
    Spherical Points       =            302
    Total Points           =         215066
    Total Blocks           =           1647
    Max Points             =            256
    Max Functions          =             41
    Weights Tolerance      =       1.00E-15

   => Loading Basis Set <=

    Name: (6-31G AUX)
    Role: JKFIT
    Keyword: DF_BASIS_SCF
    atoms 1-2, 7    entry C          line   121 file /home/stephen/src/psi4conda/share/psi4/basis/cc-pvdz-jkfit.gbs 
    atoms 3-6, 8-10 entry H          line    51 file /home/stephen/src/psi4conda/share/psi4/basis/cc-pvdz-jkfit.gbs 

  ==> Integral Setup <==

  DFHelper Memory: AOs need 0.007 GiB; user supplied 0.130 GiB. 
  Using in-core AOs.

  ==> MemDFJK: Density-Fitted J/K Matrices <==

    J tasked:                   Yes
    K tasked:                    No
    wK tasked:                   No
    OpenMP threads:               1
    Memory [MiB]:               133
    Algorithm:                 Core
    Schwarz Cutoff:           1E-12
    Mask sparsity (%):       0.2380
    Fitting Condition:        1E-10

   => Auxiliary Basis Set <=

  Basis Set: (6-31G AUX)
    Blend: CC-PVDZ-JKFIT
    Number of shells: 135
    Number of basis functions: 418
    Number of Cartesian functions: 418
    Spherical Harmonics?: false
    Max angular momentum: 3

  Cached 100.0% of DFT collocation blocks in 0.236 [GiB].

  Minimum eigenvalue in the overlap matrix is 9.1576899837E-03.
  Reciprocal condition number of the overlap matrix is 1.9774599423E-03.
    Using symmetric orthogonalization.

  ==> Pre-Iterations <==

  SCF Guess: Superposition of Atomic Densities via on-the-fly atomic UHF (no occupation information).

   -------------------------
    Irrep   Nso     Nmo    
   -------------------------
     A         41      41 
   -------------------------
    Total      41      41
   -------------------------

  ==> Iterations <==

                           Total Energy        Delta E     RMS |[F,P]|

   @DF-UKS iter SAD:  -117.46307609869856   -1.17463e+02   0.00000e+00 
   @DF-UKS iter   1:  -117.87686811687441   -4.13792e-01   1.85161e-02 DIIS/ADIIS
   @DF-UKS iter   2:  -117.67026372546064    2.06604e-01   2.29575e-02 DIIS/ADIIS
   @DF-UKS iter   3:  -118.21181433698635   -5.41551e-01   1.40005e-03 DIIS/ADIIS
   @DF-UKS iter   4:  -118.21134560111641    4.68736e-04   1.61598e-03 DIIS/ADIIS
   @DF-UKS iter   5:  -118.21385164520390   -2.50604e-03   2.01675e-04 DIIS/ADIIS
   @DF-UKS iter   6:  -118.21387236026794   -2.07151e-05   1.61241e-04 DIIS/ADIIS
   @DF-UKS iter   7:  -118.21390566769223   -3.33074e-05   2.57332e-05 DIIS
   @DF-UKS iter   8:  -118.21390729871460   -1.63102e-06   5.03421e-06 DIIS
   @DF-UKS iter   9:  -118.21390735334572   -5.46311e-08   1.19712e-06 DIIS
   @DF-UKS iter  10:  -118.21390735635464   -3.00892e-09   3.23408e-07 DIIS
  Energy and wave function converged.


  ==> Post-Iterations <==

   Electrons on quadrature grid:
      Nalpha   =   13.0000069863 ; deviation = 6.986e-06
      Nbeta    =   12.0000040894 ; deviation = 4.089e-06
      Ntotal   =   25.0000110756 ; deviation = 1.108e-05 

   @Spin Contamination Metric:   1.636228900E-02
   @S^2 Expected:                7.500000000E-01
   @S^2 Observed:                7.663622890E-01
   @S   Expected:                5.000000000E-01
   @S   Observed:                5.000000000E-01

    Orbital Energies [Eh]
    ---------------------

    Alpha Occupied:                                                       

       1A     -9.891540     2A     -9.887057     3A     -9.880035  
       4A     -0.684733     5A     -0.604731     6A     -0.516315  
       7A     -0.414058     8A     -0.368897     9A     -0.354887  
      10A     -0.349277    11A     -0.303976    12A     -0.259310  
      13A     -0.141539  

    Alpha Virtual:                                                        

      14A      0.013026    15A      0.080272    16A      0.118262  
      17A      0.121112    18A      0.146213    19A      0.159034  
      20A      0.159908    21A      0.219564    22A      0.295873  
      23A      0.446718    24A      0.507633    25A      0.516718  
      26A      0.526181    27A      0.577458    28A      0.584829  
      29A      0.641954    30A      0.682826    31A      0.718025  
      32A      0.813408    33A      0.879829    34A      0.905973  
      35A      0.916593    36A      0.919440    37A      0.935463  
      38A      0.941888    39A      1.065162    40A      1.207547  
      41A      1.386161  

    Beta Occupied:                                                        

       1A     -9.893595     2A     -9.876777     3A     -9.873409  
       4A     -0.677444     5A     -0.582099     6A     -0.510069  
       7A     -0.411431     8A     -0.363765     9A     -0.347110  
      10A     -0.343000    11A     -0.301946    12A     -0.238430  

    Beta Virtual:                                                         

      13A     -0.081947    14A      0.031561    15A      0.085738  
      16A      0.122215    17A      0.125601    18A      0.149239  
      19A      0.164836    20A      0.165902    21A      0.221213  
      22A      0.299942    23A      0.454469    24A      0.522209  
      25A      0.527605    26A      0.546412    27A      0.589831  
      28A      0.597658    29A      0.652779    30A      0.691842  
      31A      0.729628    32A      0.816097    33A      0.881408  
      34A      0.909494    35A      0.919913    36A      0.922621  
      37A      0.940206    38A      0.952388    39A      1.086822  
      40A      1.211183    41A      1.390819  

    Final Occupation by Irrep:
              A 
    DOCC [    12 ]
    SOCC [     1 ]
    NA   [    13 ]
    NB   [    12 ]

  @DF-UKS Final Energy:  -118.21390735635464

   => Energetics <=

    Nuclear Repulsion Energy =             70.2683534741580473
    One-Electron Energy =                -296.5619814393629667
    Two-Electron Energy =                 126.7042811703653200
    DFT Exchange-Correlation Energy =     -18.6245605615150538
    Empirical Dispersion Energy =           0.0000000000000000
    VV10 Nonlocal Energy =                  0.0000000000000000
    Total Energy =                       -118.2139073563546390

  UHF NO Occupations:
  HONO-2 :   11  A 1.9996878
  HONO-1 :   12  A 1.9927602
  HONO-0 :   13  A 1.0000000
  LUNO+0 :   14  A 0.0072398
  LUNO+1 :   15  A 0.0003122
  LUNO+2 :   16  A 0.0001857
  LUNO+3 :   17  A 0.0001677


Computation Completed


Properties will be evaluated at   0.000000,   0.000000,   0.000000 [a0]

Properties computed using the SCF density matrix


 Multipole Moments:

 ------------------------------------------------------------------------------------
     Multipole            Electronic (a.u.)      Nuclear  (a.u.)        Total (a.u.)
 ------------------------------------------------------------------------------------

 L = 1.  Multiply by 2.5417464519 to convert [e a0] to [Debye]
 Dipole X            :         -1.4849246            1.5855754            0.1006508
 Dipole Y            :          0.2896612           -0.2603665            0.0292947
 Dipole Z            :         -0.0000631            0.0000647            0.0000016
 Magnitude           :                                                    0.1048273

 ------------------------------------------------------------------------------------

*** tstop() called on NUS-LAPTOP at Wed Aug 16 17:03:47 2023
Module time:
	user time   =       2.68 seconds =       0.04 minutes
	system time =       0.04 seconds =       0.00 minutes
	total time  =          2 seconds =       0.03 minutes
Total time:
	user time   =      36.89 seconds =       0.61 minutes
	system time =       0.57 seconds =       0.01 minutes
	total time  =         37 seconds =       0.62 minutes
