
    -----------------------------------------------------------------------
          Psi4: An Open-Source Ab Initio Electronic Structure Package
                               Psi4 1.8 release

                         Git: Rev {} zzzzzzz 


    D. G. A. Smith, L. A. Burns, A. C. Simmonett, R. M. Parrish,
    M. C. Schieber, R. Galvelis, P. Kraus, H. Kruse, R. Di Remigio,
    A. Alenaizan, A. M. James, S. Lehtola, J. P. Misiewicz, M. Scheurer,
    R. A. Shaw, J. B. Schriber, Y. Xie, Z. L. Glick, D. A. Sirianni,
    J. S. O'Brien, J. M. Waldrop, A. Kumar, E. G. Hohenstein,
    B. P. Pritchard, B. R. Brooks, H. F. Schaefer III, A. Yu. Sokolov,
    K. Patkowski, A. E. DePrince III, U. Bozkaya, R. A. King,
    F. A. Evangelista, J. M. Turney, T. D. Crawford, C. D. Sherrill,
    J. Chem. Phys. 152(18) 184108 (2020). https://doi.org/10.1063/5.0006002

                            Additional Code Authors
    E. T. Seidl, C. L. Janssen, E. F. Valeev, M. L. Leininger,
    J. F. Gonthier, R. M. Richard, H. R. McAlexander, M. Saitow, X. Wang,
    P. Verma, M. H. Lechner, A. Jiang, S. Behnle, A. G. Heide,
    M. F. Herbst, and D. L. Poole

             Previous Authors, Complete List of Code Contributors,
                       and Citations for Specific Modules
    https://github.com/psi4/psi4/blob/master/codemeta.json
    https://github.com/psi4/psi4/graphs/contributors
    http://psicode.org/psi4manual/master/introduction.html#citing-psifour

    -----------------------------------------------------------------------


    Psi4 started on: Wednesday, 16 August 2023 05:03PM

    Process ID: 19122
    Host:       NUS-LAPTOP
    PSIDATADIR: /home/stephen/src/psi4conda/share/psi4
    Memory:     500.0 MiB
    Threads:    1
    
Scratch directory: /tmp/
   => Libint2 <=

    Primary   basis highest AM E, G, H:  5, 4, 3
    Auxiliary basis highest AM E, G, H:  6, 5, 4
    Onebody   basis highest AM E, G, H:  6, 5, 4
    Solid Harmonics ordering:            gaussian

*** tstart() called on NUS-LAPTOP
*** at Wed Aug 16 17:04:33 2023

   => Loading Basis Set <=

    Name: 6-31G
    Role: ORBITAL
    Keyword: BASIS
    atoms 1-5  entry C          line    87 file /home/stephen/src/psi4conda/share/psi4/basis/6-31g.gbs 
    atoms 6-13 entry H          line    26 file /home/stephen/src/psi4conda/share/psi4/basis/6-31g.gbs 


         ---------------------------------------------------------
                                   SCF
               by Justin Turney, Rob Parrish, Andy Simmonett
                          and Daniel G. A. Smith
                              UKS Reference
                        1 Threads,    500 MiB Core
         ---------------------------------------------------------

  ==> Geometry <==

    Molecular point group: c1
    Full point group: C1

    Geometry (in Angstrom), charge = 0, multiplicity = 1:

       Center              X                  Y                   Z               Mass       
    ------------   -----------------  -----------------  -----------------  -----------------
         C           -1.299622831368    -0.938554692929    -0.027691242012    12.000000000000
         C           -1.205947871368     0.472118607071    -0.020950262012    12.000000000000
         C           -0.000000551368     1.149663397071     0.145764807988    12.000000000000
         C            1.205946778632     0.472115427071    -0.020958252012    12.000000000000
         C            1.299627018632    -0.938549402929    -0.027683252012    12.000000000000
         H            2.168795358632    -1.361250892929    -0.523233242012     1.007825032230
         H            1.032043258632    -1.488084102929     0.865632657988     1.007825032230
         H            2.037130768632     1.051887317071    -0.406040592012     1.007825032230
         H            0.000000448632     2.229216737071     0.078368787988     1.007825032230
         H           -2.037131871368     1.051887317071    -0.406017312012     1.007825032230
         H           -2.168796461368    -1.361240312929    -0.523252292012     1.007825032230
         H           -0.000011551368    -1.215642482929    -0.528344572012     1.007825032230
         H           -1.032060231368    -1.488094682929     0.865622077988     1.007825032230

  Running in c1 symmetry.

  Rotational constants: A =      0.27083  B =      0.17136  C =      0.10894 [cm^-1]
  Rotational constants: A =   8119.37700  B =   5137.37141  C =   3266.07632 [MHz]
  Nuclear repulsion =  164.936618324582014

  Charge       = 0
  Multiplicity = 1
  Electrons    = 38
  Nalpha       = 19
  Nbeta        = 19

  ==> Algorithm <==

  SCF Algorithm Type is DF.
  DIIS enabled.
  MOM disabled.
  Fractional occupation disabled.
  Guess Type is SAD.
  Energy threshold   = 1.00e-08
  Density threshold  = 1.00e-06
  Integral threshold = 1.00e-12

  ==> Primary Basis <==

  Basis Set: 6-31G
    Blend: 6-31G
    Number of shells: 41
    Number of basis functions: 61
    Number of Cartesian functions: 61
    Spherical Harmonics?: false
    Max angular momentum: 1

  ==> DFT Potential <==

   => LibXC <=

    Version 6.1.0
    S. Lehtola, C. Steigemann, M. J.T. Oliveira, and M. A.L. Marques.,  SoftwareX 7, 1–5 (2018) (10.1016/j.softx.2017.11.002)

   => Composite Functional: PBE_CUSTOM <= 

    Perdew, Burke & Ernzerhof
    J. P. Perdew, K. Burke, and M. Ernzerhof.,  Phys. Rev. Lett. 77, 3865 (1996) (10.1103/PhysRevLett.77.3865)
    J. P. Perdew, K. Burke, and M. Ernzerhof.,  Phys. Rev. Lett. 78, 1396 (1997) (10.1103/PhysRevLett.78.1396)

    Deriv               =              1
    GGA                 =           TRUE
    Meta                =          FALSE

    Exchange Hybrid     =          FALSE
    MP2 Hybrid          =          FALSE

   => Exchange Functionals <=

    1.0000     XC_GGA_X_PBE

   => Correlation Functionals <=

    1.0000     XC_GGA_C_PBE

   => LibXC Density Thresholds  <==

    XC_GGA_C_PBE:  1.00E-12 
    XC_GGA_X_PBE:  1.00E-15 

   => Molecular Quadrature <=

    Radial Scheme          =       TREUTLER
    Pruning Scheme         =           NONE
    Nuclear Scheme         =       TREUTLER

    Blocking Scheme        =         OCTREE
    BS radius alpha        =              1
    Pruning alpha          =              1
    Radial Points          =             75
    Spherical Points       =            302
    Total Points           =         274586
    Total Blocks           =           2067
    Max Points             =            256
    Max Functions          =             61
    Weights Tolerance      =       1.00E-15

   => Loading Basis Set <=

    Name: (6-31G AUX)
    Role: JKFIT
    Keyword: DF_BASIS_SCF
    atoms 1-5  entry C          line   121 file /home/stephen/src/psi4conda/share/psi4/basis/cc-pvdz-jkfit.gbs 
    atoms 6-13 entry H          line    51 file /home/stephen/src/psi4conda/share/psi4/basis/cc-pvdz-jkfit.gbs 

  ==> Integral Setup <==

  DFHelper Memory: AOs need 0.020 GiB; user supplied 0.020 GiB. 
  Using in-core AOs.

  ==> MemDFJK: Density-Fitted J/K Matrices <==

    J tasked:                   Yes
    K tasked:                    No
    wK tasked:                   No
    OpenMP threads:               1
    Memory [MiB]:                20
    Algorithm:                 Core
    Schwarz Cutoff:           1E-12
    Mask sparsity (%):       0.5375
    Fitting Condition:        1E-10

   => Auxiliary Basis Set <=

  Basis Set: (6-31G AUX)
    Blend: CC-PVDZ-JKFIT
    Number of shells: 192
    Number of basis functions: 605
    Number of Cartesian functions: 605
    Spherical Harmonics?: false
    Max angular momentum: 3

  Cached 50.0% of DFT collocation blocks in 0.217 [GiB].

  Minimum eigenvalue in the overlap matrix is 3.4875026432E-03.
  Reciprocal condition number of the overlap matrix is 6.1274844907E-04.
    Using symmetric orthogonalization.

  ==> Pre-Iterations <==

  SCF Guess: Superposition of Atomic Densities via on-the-fly atomic UHF (no occupation information).

   -------------------------
    Irrep   Nso     Nmo    
   -------------------------
     A         61      61 
   -------------------------
    Total      61      61
   -------------------------

  ==> Iterations <==

                           Total Energy        Delta E     RMS |[F,P]|

   @DF-UKS iter SAD:  -194.49032747564081   -1.94490e+02   0.00000e+00 
   @DF-UKS iter   1:  -194.49134996510224   -1.02249e-03   1.42596e-02 DIIS/ADIIS
   @DF-UKS iter   2:  -194.16463370137660    3.26716e-01   1.84904e-02 DIIS/ADIIS
   @DF-UKS iter   3:  -194.93879162382385   -7.74158e-01   6.63476e-04 DIIS/ADIIS
   @DF-UKS iter   4:  -194.93952034575997   -7.28722e-04   4.75488e-04 DIIS/ADIIS
   @DF-UKS iter   5:  -194.93993929709325   -4.18951e-04   2.20285e-04 DIIS/ADIIS
   @DF-UKS iter   6:  -194.94003614543908   -9.68483e-05   4.94239e-05 DIIS
   @DF-UKS iter   7:  -194.94003874304633   -2.59761e-06   3.00820e-05 DIIS
   @DF-UKS iter   8:  -194.94004109666457   -2.35362e-06   3.73823e-06 DIIS
   @DF-UKS iter   9:  -194.94004113800437   -4.13398e-08   2.93563e-07 DIIS
   @DF-UKS iter  10:  -194.94004113828692   -2.82540e-10   3.77920e-08 DIIS
  Energy and wave function converged.


  ==> Post-Iterations <==

   Electrons on quadrature grid:
      Nalpha   =   18.9999485397 ; deviation = -5.146e-05
      Nbeta    =   18.9999485397 ; deviation = -5.146e-05
      Ntotal   =   37.9998970794 ; deviation = -1.029e-04 

   @Spin Contamination Metric:  -2.131628207E-14
   @S^2 Expected:                0.000000000E+00
   @S^2 Observed:               -2.131628207E-14
   @S   Expected:                0.000000000E+00
   @S   Observed:                0.000000000E+00

    Orbital Energies [Eh]
    ---------------------

    Alpha Occupied:                                                       

       1A     -9.894354     2A     -9.894346     3A     -9.886516  
       4A     -9.884703     5A     -9.884702     6A     -0.751769  
       7A     -0.668780     8A     -0.625259     9A     -0.529012  
      10A     -0.475808    11A     -0.444208    12A     -0.377193  
      13A     -0.365876    14A     -0.362056    15A     -0.342918  
      16A     -0.317277    17A     -0.303960    18A     -0.225477  
      19A     -0.191688  

    Alpha Virtual:                                                        

      20A     -0.044509    21A      0.005602    22A      0.075409  
      23A      0.102765    24A      0.119746    25A      0.148925  
      26A      0.162775    27A      0.165908    28A      0.191943  
      29A      0.213764    30A      0.249406    31A      0.267654  
      32A      0.326410    33A      0.389611    34A      0.497044  
      35A      0.500131    36A      0.522628    37A      0.550020  
      38A      0.565377    39A      0.587664    40A      0.598766  
      41A      0.617130    42A      0.652798    43A      0.660091  
      44A      0.709832    45A      0.726604    46A      0.791999  
      47A      0.820841    48A      0.829044    49A      0.858012  
      50A      0.869634    51A      0.906766    52A      0.917019  
      53A      0.923249    54A      0.962918    55A      1.049372  
      56A      1.054289    57A      1.119094    58A      1.180812  
      59A      1.267105    60A      1.338276    61A      1.422866  

    Beta Occupied:                                                        

       1A     -9.894354     2A     -9.894346     3A     -9.886516  
       4A     -9.884703     5A     -9.884702     6A     -0.751769  
       7A     -0.668780     8A     -0.625259     9A     -0.529012  
      10A     -0.475808    11A     -0.444208    12A     -0.377193  
      13A     -0.365876    14A     -0.362056    15A     -0.342918  
      16A     -0.317277    17A     -0.303960    18A     -0.225477  
      19A     -0.191688  

    Beta Virtual:                                                         

      20A     -0.044509    21A      0.005602    22A      0.075409  
      23A      0.102765    24A      0.119746    25A      0.148925  
      26A      0.162775    27A      0.165908    28A      0.191943  
      29A      0.213764    30A      0.249406    31A      0.267654  
      32A      0.326410    33A      0.389611    34A      0.497044  
      35A      0.500131    36A      0.522628    37A      0.550020  
      38A      0.565377    39A      0.587664    40A      0.598766  
      41A      0.617130    42A      0.652798    43A      0.660091  
      44A      0.709832    45A      0.726604    46A      0.791999  
      47A      0.820841    48A      0.829044    49A      0.858012  
      50A      0.869634    51A      0.906766    52A      0.917019  
      53A      0.923249    54A      0.962918    55A      1.049372  
      56A      1.054289    57A      1.119094    58A      1.180812  
      59A      1.267105    60A      1.338276    61A      1.422866  

    Final Occupation by Irrep:
              A 
    DOCC [    19 ]
    SOCC [     0 ]
    NA   [    19 ]
    NB   [    19 ]

  @DF-UKS Final Energy:  -194.94004113828692

   => Energetics <=

    Nuclear Repulsion Energy =            164.9366183245820139
    One-Electron Energy =                -587.5847155038668461
    Two-Electron Energy =                 257.5110379659334967
    DFT Exchange-Correlation Energy =     -29.8029819249355832
    Empirical Dispersion Energy =           0.0000000000000000
    VV10 Nonlocal Energy =                  0.0000000000000000
    Total Energy =                       -194.9400411382869152

  UHF NO Occupations:
  HONO-2 :   17  A 2.0000000
  HONO-1 :   18  A 2.0000000
  HONO-0 :   19  A 2.0000000
  LUNO+0 :   20  A 0.0000000
  LUNO+1 :   21  A 0.0000000
  LUNO+2 :   22  A 0.0000000
  LUNO+3 :   23  A 0.0000000


Computation Completed


Properties will be evaluated at   0.000000,   0.000000,   0.000000 [a0]

Properties computed using the SCF density matrix


 Multipole Moments:

 ------------------------------------------------------------------------------------
     Multipole            Electronic (a.u.)      Nuclear  (a.u.)        Total (a.u.)
 ------------------------------------------------------------------------------------

 L = 1.  Multiply by 2.5417464519 to convert [e a0] to [Debye]
 Dipole X            :          0.0000272           -0.0000284           -0.0000012
 Dipole Y            :          2.4049304           -2.4199097           -0.0149793
 Dipole Z            :          0.4732745           -0.5411678           -0.0678933
 Magnitude           :                                                    0.0695261

 ------------------------------------------------------------------------------------

*** tstop() called on NUS-LAPTOP at Wed Aug 16 17:04:39 2023
Module time:
	user time   =       6.35 seconds =       0.11 minutes
	system time =       0.04 seconds =       0.00 minutes
	total time  =          6 seconds =       0.10 minutes
Total time:
	user time   =      87.94 seconds =       1.47 minutes
	system time =       1.25 seconds =       0.02 minutes
	total time  =         89 seconds =       1.48 minutes
