
    -----------------------------------------------------------------------
          Psi4: An Open-Source Ab Initio Electronic Structure Package
                               Psi4 1.8 release

                         Git: Rev {} zzzzzzz 


    D. G. A. Smith, L. A. Burns, A. C. Simmonett, R. M. Parrish,
    M. C. Schieber, R. Galvelis, P. Kraus, H. Kruse, R. Di Remigio,
    A. Alenaizan, A. M. James, S. Lehtola, J. P. Misiewicz, M. Scheurer,
    R. A. Shaw, J. B. Schriber, Y. Xie, Z. L. Glick, D. A. Sirianni,
    J. S. O'Brien, J. M. Waldrop, A. Kumar, E. G. Hohenstein,
    B. P. Pritchard, B. R. Brooks, H. F. Schaefer III, A. Yu. Sokolov,
    K. Patkowski, A. E. DePrince III, U. Bozkaya, R. A. King,
    F. A. Evangelista, J. M. Turney, T. D. Crawford, C. D. Sherrill,
    J. Chem. Phys. 152(18) 184108 (2020). https://doi.org/10.1063/5.0006002

                            Additional Code Authors
    E. T. Seidl, C. L. Janssen, E. F. Valeev, M. L. Leininger,
    J. F. Gonthier, R. M. Richard, H. R. McAlexander, M. Saitow, X. Wang,
    P. Verma, M. H. Lechner, A. Jiang, S. Behnle, A. G. Heide,
    M. F. Herbst, and D. L. Poole

             Previous Authors, Complete List of Code Contributors,
                       and Citations for Specific Modules
    https://github.com/psi4/psi4/blob/master/codemeta.json
    https://github.com/psi4/psi4/graphs/contributors
    http://psicode.org/psi4manual/master/introduction.html#citing-psifour

    -----------------------------------------------------------------------


    Psi4 started on: Wednesday, 16 August 2023 05:03PM

    Process ID: 19122
    Host:       NUS-LAPTOP
    PSIDATADIR: /home/stephen/src/psi4conda/share/psi4
    Memory:     500.0 MiB
    Threads:    1
    
Scratch directory: /tmp/
   => Libint2 <=

    Primary   basis highest AM E, G, H:  5, 4, 3
    Auxiliary basis highest AM E, G, H:  6, 5, 4
    Onebody   basis highest AM E, G, H:  6, 5, 4
    Solid Harmonics ordering:            gaussian

*** tstart() called on NUS-LAPTOP
*** at Wed Aug 16 17:04:08 2023

   => Loading Basis Set <=

    Name: 6-31G
    Role: ORBITAL
    Keyword: BASIS
    atoms 1, 3 entry H          line    26 file /home/stephen/src/psi4conda/share/psi4/basis/6-31g.gbs 
    atoms 2    entry F          line   132 file /home/stephen/src/psi4conda/share/psi4/basis/6-31g.gbs 


         ---------------------------------------------------------
                                   SCF
               by Justin Turney, Rob Parrish, Andy Simmonett
                          and Daniel G. A. Smith
                              UKS Reference
                        1 Threads,    500 MiB Core
         ---------------------------------------------------------

  ==> Geometry <==

    Molecular point group: c1
    Full point group: Cs

    Geometry (in Angstrom), charge = 0, multiplicity = 2:

       Center              X                  Y                   Z               Mass       
    ------------   -----------------  -----------------  -----------------  -----------------
         H            0.146567810000    -1.284497043098     0.000000000000     1.007825032230
         F            0.000000000000     0.174316046902     0.000000000000    18.998403162730
         H           -0.146567810000    -2.001516333098     0.000000000000     1.007825032230

  Running in c1 symmetry.

  Rotational constants: A =    406.19255  B =      2.68462  C =      2.66699 [cm^-1]
  Rotational constants: A = 12177346.27288  B =  80482.76365  C =  79954.32789 [MHz]
  Nuclear repulsion =    6.115402535149997

  Charge       = 0
  Multiplicity = 2
  Electrons    = 11
  Nalpha       = 6
  Nbeta        = 5

  ==> Algorithm <==

  SCF Algorithm Type is DF.
  DIIS enabled.
  MOM disabled.
  Fractional occupation disabled.
  Guess Type is SAD.
  Energy threshold   = 1.00e-08
  Density threshold  = 1.00e-06
  Integral threshold = 1.00e-12

  ==> Primary Basis <==

  Basis Set: 6-31G
    Blend: 6-31G
    Number of shells: 9
    Number of basis functions: 13
    Number of Cartesian functions: 13
    Spherical Harmonics?: false
    Max angular momentum: 1

  ==> DFT Potential <==

   => LibXC <=

    Version 6.1.0
    S. Lehtola, C. Steigemann, M. J.T. Oliveira, and M. A.L. Marques.,  SoftwareX 7, 1–5 (2018) (10.1016/j.softx.2017.11.002)

   => Composite Functional: PBE_CUSTOM <= 

    Perdew, Burke & Ernzerhof
    J. P. Perdew, K. Burke, and M. Ernzerhof.,  Phys. Rev. Lett. 77, 3865 (1996) (10.1103/PhysRevLett.77.3865)
    J. P. Perdew, K. Burke, and M. Ernzerhof.,  Phys. Rev. Lett. 78, 1396 (1997) (10.1103/PhysRevLett.78.1396)

    Deriv               =              1
    GGA                 =           TRUE
    Meta                =          FALSE

    Exchange Hybrid     =          FALSE
    MP2 Hybrid          =          FALSE

   => Exchange Functionals <=

    1.0000     XC_GGA_X_PBE

   => Correlation Functionals <=

    1.0000     XC_GGA_C_PBE

   => LibXC Density Thresholds  <==

    XC_GGA_C_PBE:  1.00E-12 
    XC_GGA_X_PBE:  1.00E-15 

   => Molecular Quadrature <=

    Radial Scheme          =       TREUTLER
    Pruning Scheme         =           NONE
    Nuclear Scheme         =       TREUTLER

    Blocking Scheme        =         OCTREE
    BS radius alpha        =              1
    Pruning alpha          =              1
    Radial Points          =             75
    Spherical Points       =            302
    Total Points           =          66253
    Total Blocks           =            564
    Max Points             =            255
    Max Functions          =             13
    Weights Tolerance      =       1.00E-15

   => Loading Basis Set <=

    Name: (6-31G AUX)
    Role: JKFIT
    Keyword: DF_BASIS_SCF
    atoms 1, 3 entry H          line    51 file /home/stephen/src/psi4conda/share/psi4/basis/cc-pvdz-jkfit.gbs 
    atoms 2    entry F          line   271 file /home/stephen/src/psi4conda/share/psi4/basis/cc-pvdz-jkfit.gbs 

  ==> Integral Setup <==

  DFHelper Memory: AOs need 0.000 GiB; user supplied 0.343 GiB. 
  Using in-core AOs.

  ==> MemDFJK: Density-Fitted J/K Matrices <==

    J tasked:                   Yes
    K tasked:                    No
    wK tasked:                   No
    OpenMP threads:               1
    Memory [MiB]:               351
    Algorithm:                 Core
    Schwarz Cutoff:           1E-12
    Mask sparsity (%):       0.0000
    Fitting Condition:        1E-10

   => Auxiliary Basis Set <=

  Basis Set: (6-31G AUX)
    Blend: CC-PVDZ-JKFIT
    Number of shells: 42
    Number of basis functions: 131
    Number of Cartesian functions: 131
    Spherical Harmonics?: false
    Max angular momentum: 3

  Cached 100.0% of DFT collocation blocks in 0.023 [GiB].

  Minimum eigenvalue in the overlap matrix is 6.0055969902E-02.
  Reciprocal condition number of the overlap matrix is 1.9666046562E-02.
    Using symmetric orthogonalization.

  ==> Pre-Iterations <==

  SCF Guess: Superposition of Atomic Densities via on-the-fly atomic UHF (no occupation information).

   -------------------------
    Irrep   Nso     Nmo    
   -------------------------
     A         13      13 
   -------------------------
    Total      13      13
   -------------------------

  ==> Iterations <==

                           Total Energy        Delta E     RMS |[F,P]|

   @DF-UKS iter SAD:  -100.46768272291797   -1.00468e+02   0.00000e+00 
   @DF-UKS iter   1:  -100.76943535288950   -3.01753e-01   1.57872e-02 DIIS/ADIIS
   @DF-UKS iter   2:  -100.73122417100556    3.82112e-02   2.84186e-02 DIIS/ADIIS
   @DF-UKS iter   3:  -100.78551114845190   -5.42870e-02   1.18470e-03 DIIS/ADIIS
   @DF-UKS iter   4:  -100.78551663068878   -5.48224e-06   1.15154e-03 DIIS/ADIIS
   @DF-UKS iter   5:  -100.78567664378650   -1.60013e-04   8.17860e-05 DIIS
   @DF-UKS iter   6:  -100.78567797211178   -1.32833e-06   3.28721e-05 DIIS
   @DF-UKS iter   7:  -100.78567812140740   -1.49296e-07   8.54567e-06 DIIS
   @DF-UKS iter   8:  -100.78567813716765   -1.57602e-08   1.03467e-06 DIIS
   @DF-UKS iter   9:  -100.78567813795115   -7.83501e-10   4.46570e-07 DIIS
  Energy and wave function converged.


  ==> Post-Iterations <==

   Electrons on quadrature grid:
      Nalpha   =    6.0000001057 ; deviation = 1.057e-07
      Nbeta    =    5.0000001171 ; deviation = 1.171e-07
      Ntotal   =   11.0000002227 ; deviation = 2.227e-07 

   @Spin Contamination Metric:   2.738822925E-03
   @S^2 Expected:                7.500000000E-01
   @S^2 Observed:                7.527388229E-01
   @S   Expected:                5.000000000E-01
   @S   Observed:                5.000000000E-01

    Orbital Energies [Eh]
    ---------------------

    Alpha Occupied:                                                       

       1A    -24.279428     2A     -1.041888     3A     -0.484714  
       4A     -0.347628     5A     -0.321715     6A     -0.320616  

    Alpha Virtual:                                                        

       7A      0.101303     8A      0.548085     9A      0.903045  
      10A      1.112611    11A      1.120572    12A      1.211128  
      13A      1.547549  

    Beta Occupied:                                                        

       1A    -24.258080     2A     -0.990730     3A     -0.438730  
       4A     -0.299498     5A     -0.298544  

    Beta Virtual:                                                         

       6A     -0.259571     7A      0.124181     8A      0.569620  
       9A      0.938816    10A      1.126923    11A      1.135691  
      12A      1.267482    13A      1.585946  

    Final Occupation by Irrep:
              A 
    DOCC [     5 ]
    SOCC [     1 ]
    NA   [     6 ]
    NB   [     5 ]

  @DF-UKS Final Energy:  -100.78567813795115

   => Energetics <=

    Nuclear Repulsion Energy =              6.1154025351499968
    One-Electron Energy =                -152.8712157723840619
    Two-Electron Energy =                  56.9714409211438380
    DFT Exchange-Correlation Energy =     -11.0013058218609299
    Empirical Dispersion Energy =           0.0000000000000000
    VV10 Nonlocal Energy =                  0.0000000000000000
    Total Energy =                       -100.7856781379511517

  UHF NO Occupations:
  HONO-2 :    4  A 1.9999596
  HONO-1 :    5  A 1.9987262
  HONO-0 :    6  A 1.0000000
  LUNO+0 :    7  A 0.0012738
  LUNO+1 :    8  A 0.0000404
  LUNO+2 :    9  A 0.0000285
  LUNO+3 :   10  A 0.0000275


Computation Completed


Properties will be evaluated at   0.000000,   0.000000,   0.000000 [a0]

Properties computed using the SCF density matrix


 Multipole Moments:

 ------------------------------------------------------------------------------------
     Multipole            Electronic (a.u.)      Nuclear  (a.u.)        Total (a.u.)
 ------------------------------------------------------------------------------------

 L = 1.  Multiply by 2.5417464519 to convert [e a0] to [Debye]
 Dipole X            :          0.0119591            0.0000000            0.0119591
 Dipole Y            :          2.7195336           -3.2449790           -0.5254454
 Dipole Z            :          0.0000000            0.0000000            0.0000000
 Magnitude           :                                                    0.5255815

 ------------------------------------------------------------------------------------

*** tstop() called on NUS-LAPTOP at Wed Aug 16 17:04:08 2023
Module time:
	user time   =       0.55 seconds =       0.01 minutes
	system time =       0.02 seconds =       0.00 minutes
	total time  =          0 seconds =       0.00 minutes
Total time:
	user time   =      57.25 seconds =       0.95 minutes
	system time =       0.88 seconds =       0.01 minutes
	total time  =         58 seconds =       0.97 minutes
