
    -----------------------------------------------------------------------
          Psi4: An Open-Source Ab Initio Electronic Structure Package
                               Psi4 1.8 release

                         Git: Rev {} zzzzzzz 


    D. G. A. Smith, L. A. Burns, A. C. Simmonett, R. M. Parrish,
    M. C. Schieber, R. Galvelis, P. Kraus, H. Kruse, R. Di Remigio,
    A. Alenaizan, A. M. James, S. Lehtola, J. P. Misiewicz, M. Scheurer,
    R. A. Shaw, J. B. Schriber, Y. Xie, Z. L. Glick, D. A. Sirianni,
    J. S. O'Brien, J. M. Waldrop, A. Kumar, E. G. Hohenstein,
    B. P. Pritchard, B. R. Brooks, H. F. Schaefer III, A. Yu. Sokolov,
    K. Patkowski, A. E. DePrince III, U. Bozkaya, R. A. King,
    F. A. Evangelista, J. M. Turney, T. D. Crawford, C. D. Sherrill,
    J. Chem. Phys. 152(18) 184108 (2020). https://doi.org/10.1063/5.0006002

                            Additional Code Authors
    E. T. Seidl, C. L. Janssen, E. F. Valeev, M. L. Leininger,
    J. F. Gonthier, R. M. Richard, H. R. McAlexander, M. Saitow, X. Wang,
    P. Verma, M. H. Lechner, A. Jiang, S. Behnle, A. G. Heide,
    M. F. Herbst, and D. L. Poole

             Previous Authors, Complete List of Code Contributors,
                       and Citations for Specific Modules
    https://github.com/psi4/psi4/blob/master/codemeta.json
    https://github.com/psi4/psi4/graphs/contributors
    http://psicode.org/psi4manual/master/introduction.html#citing-psifour

    -----------------------------------------------------------------------


    Psi4 started on: Wednesday, 16 August 2023 05:03PM

    Process ID: 19122
    Host:       NUS-LAPTOP
    PSIDATADIR: /home/stephen/src/psi4conda/share/psi4
    Memory:     500.0 MiB
    Threads:    1
    
Scratch directory: /tmp/
   => Libint2 <=

    Primary   basis highest AM E, G, H:  5, 4, 3
    Auxiliary basis highest AM E, G, H:  6, 5, 4
    Onebody   basis highest AM E, G, H:  6, 5, 4
    Solid Harmonics ordering:            gaussian

*** tstart() called on NUS-LAPTOP
*** at Wed Aug 16 17:03:56 2023

   => Loading Basis Set <=

    Name: 6-31G
    Role: ORBITAL
    Keyword: BASIS
    atoms 1   entry C          line    87 file /home/stephen/src/psi4conda/share/psi4/basis/6-31g.gbs 
    atoms 2   entry O          line   117 file /home/stephen/src/psi4conda/share/psi4/basis/6-31g.gbs 
    atoms 3-7 entry H          line    26 file /home/stephen/src/psi4conda/share/psi4/basis/6-31g.gbs 


         ---------------------------------------------------------
                                   SCF
               by Justin Turney, Rob Parrish, Andy Simmonett
                          and Daniel G. A. Smith
                              UKS Reference
                        1 Threads,    500 MiB Core
         ---------------------------------------------------------

  ==> Geometry <==

    Molecular point group: c1
    Full point group: C1

    Geometry (in Angstrom), charge = 0, multiplicity = 2:

       Center              X                  Y                   Z               Mass       
    ------------   -----------------  -----------------  -----------------  -----------------
         C           -1.303880286197     0.032632245255     0.000301736326    12.000000000000
         O            1.201572903803    -0.084029804745     0.000027736326    15.994914619570
         H           -0.082916446197    -0.093356024745     0.002693736326     1.007825032230
         H           -1.617920516197    -0.208585954745     1.009967096326     1.007825032230
         H           -1.523060206197     1.057898715255    -0.278187383674     1.007825032230
         H           -1.645104356197    -0.685449274745    -0.737810103674     1.007825032230
         H            1.324246773803     0.874559965255    -0.000696263674     1.007825032230

  Running in c1 symmetry.

  Rotational constants: A =      4.03161  B =      0.30846  C =      0.30362 [cm^-1]
  Rotational constants: A = 120864.61385  B =   9247.43607  C =   9102.18905 [MHz]
  Nuclear repulsion =   37.118780315539084

  Charge       = 0
  Multiplicity = 2
  Electrons    = 19
  Nalpha       = 10
  Nbeta        = 9

  ==> Algorithm <==

  SCF Algorithm Type is DF.
  DIIS enabled.
  MOM disabled.
  Fractional occupation disabled.
  Guess Type is SAD.
  Energy threshold   = 1.00e-08
  Density threshold  = 1.00e-06
  Integral threshold = 1.00e-12

  ==> Primary Basis <==

  Basis Set: 6-31G
    Blend: 6-31G
    Number of shells: 20
    Number of basis functions: 28
    Number of Cartesian functions: 28
    Spherical Harmonics?: false
    Max angular momentum: 1

  ==> DFT Potential <==

   => LibXC <=

    Version 6.1.0
    S. Lehtola, C. Steigemann, M. J.T. Oliveira, and M. A.L. Marques.,  SoftwareX 7, 1–5 (2018) (10.1016/j.softx.2017.11.002)

   => Composite Functional: PBE_CUSTOM <= 

    Perdew, Burke & Ernzerhof
    J. P. Perdew, K. Burke, and M. Ernzerhof.,  Phys. Rev. Lett. 77, 3865 (1996) (10.1103/PhysRevLett.77.3865)
    J. P. Perdew, K. Burke, and M. Ernzerhof.,  Phys. Rev. Lett. 78, 1396 (1997) (10.1103/PhysRevLett.78.1396)

    Deriv               =              1
    GGA                 =           TRUE
    Meta                =          FALSE

    Exchange Hybrid     =          FALSE
    MP2 Hybrid          =          FALSE

   => Exchange Functionals <=

    1.0000     XC_GGA_X_PBE

   => Correlation Functionals <=

    1.0000     XC_GGA_C_PBE

   => LibXC Density Thresholds  <==

    XC_GGA_C_PBE:  1.00E-12 
    XC_GGA_X_PBE:  1.00E-15 

   => Molecular Quadrature <=

    Radial Scheme          =       TREUTLER
    Pruning Scheme         =           NONE
    Nuclear Scheme         =       TREUTLER

    Blocking Scheme        =         OCTREE
    BS radius alpha        =              1
    Pruning alpha          =              1
    Radial Points          =             75
    Spherical Points       =            302
    Total Points           =         151797
    Total Blocks           =           1187
    Max Points             =            256
    Max Functions          =             28
    Weights Tolerance      =       1.00E-15

   => Loading Basis Set <=

    Name: (6-31G AUX)
    Role: JKFIT
    Keyword: DF_BASIS_SCF
    atoms 1   entry C          line   121 file /home/stephen/src/psi4conda/share/psi4/basis/cc-pvdz-jkfit.gbs 
    atoms 2   entry O          line   221 file /home/stephen/src/psi4conda/share/psi4/basis/cc-pvdz-jkfit.gbs 
    atoms 3-7 entry H          line    51 file /home/stephen/src/psi4conda/share/psi4/basis/cc-pvdz-jkfit.gbs 

  ==> Integral Setup <==

  DFHelper Memory: AOs need 0.002 GiB; user supplied 0.255 GiB. 
  Using in-core AOs.

  ==> MemDFJK: Density-Fitted J/K Matrices <==

    J tasked:                   Yes
    K tasked:                    No
    wK tasked:                   No
    OpenMP threads:               1
    Memory [MiB]:               260
    Algorithm:                 Core
    Schwarz Cutoff:           1E-12
    Mask sparsity (%):       0.2551
    Fitting Condition:        1E-10

   => Auxiliary Basis Set <=

  Basis Set: (6-31G AUX)
    Blend: CC-PVDZ-JKFIT
    Number of shells: 93
    Number of basis functions: 287
    Number of Cartesian functions: 287
    Spherical Harmonics?: false
    Max angular momentum: 3

  Cached 100.0% of DFT collocation blocks in 0.112 [GiB].

  Minimum eigenvalue in the overlap matrix is 1.0695959135E-02.
  Reciprocal condition number of the overlap matrix is 2.3873927525E-03.
    Using symmetric orthogonalization.

  ==> Pre-Iterations <==

  SCF Guess: Superposition of Atomic Densities via on-the-fly atomic UHF (no occupation information).

   -------------------------
    Irrep   Nso     Nmo    
   -------------------------
     A         28      28 
   -------------------------
    Total      28      28
   -------------------------

  ==> Iterations <==

                           Total Energy        Delta E     RMS |[F,P]|

   @DF-UKS iter SAD:  -115.53774291607820   -1.15538e+02   0.00000e+00 
   @DF-UKS iter   1:  -115.82740459332938   -2.89662e-01   2.49725e-02 DIIS/ADIIS
   @DF-UKS iter   2:  -115.62517505948128    2.02230e-01   3.36140e-02 DIIS/ADIIS
   @DF-UKS iter   3:  -116.05633897438838   -4.31164e-01   4.04756e-03 DIIS/ADIIS
   @DF-UKS iter   4:  -116.06006114005613   -3.72217e-03   2.72731e-03 DIIS/ADIIS
   @DF-UKS iter   5:  -116.06312011841158   -3.05898e-03   1.61226e-04 DIIS/ADIIS
   @DF-UKS iter   6:  -116.06313747857111   -1.73602e-05   3.01485e-05 DIIS
   @DF-UKS iter   7:  -116.06313812892473   -6.50354e-07   6.61571e-06 DIIS
   @DF-UKS iter   8:  -116.06313815329460   -2.43699e-08   9.93069e-07 DIIS
   @DF-UKS iter   9:  -116.06313815402224   -7.27638e-10   2.41865e-07 DIIS
  Energy and wave function converged.


  ==> Post-Iterations <==

   Electrons on quadrature grid:
      Nalpha   =   10.0000065111 ; deviation = 6.511e-06
      Nbeta    =    9.0000061143 ; deviation = 6.114e-06
      Ntotal   =   19.0000126254 ; deviation = 1.263e-05 

   @Spin Contamination Metric:   2.837053848E-03
   @S^2 Expected:                7.500000000E-01
   @S^2 Observed:                7.528370538E-01
   @S   Expected:                5.000000000E-01
   @S   Observed:                5.000000000E-01

    Orbital Energies [Eh]
    ---------------------

    Alpha Occupied:                                                       

       1A    -18.774206     2A     -9.899842     3A     -0.901526  
       4A     -0.649455     5A     -0.432027     6A     -0.376014  
       7A     -0.374043     8A     -0.350799     9A     -0.231070  
      10A     -0.229287  

    Alpha Virtual:                                                        

      11A      0.058004    12A      0.100072    13A      0.135157  
      14A      0.138202    15A      0.259211    16A      0.488540  
      17A      0.489709    18A      0.508501    19A      0.760135  
      20A      0.806340    21A      0.865322    22A      0.870721  
      23A      0.881742    24A      0.882696    25A      0.959291  
      26A      1.039035    27A      1.186104    28A      1.673523  

    Beta Occupied:                                                        

       1A    -18.759448     2A     -9.892982     3A     -0.869514  
       4A     -0.632954     5A     -0.409423     6A     -0.369180  
       7A     -0.368075     8A     -0.324938     9A     -0.215819  

    Beta Virtual:                                                         

      10A     -0.167443    11A      0.063724    12A      0.106013  
      13A      0.139780    14A      0.142896    15A      0.275730  
      16A      0.493560    17A      0.494824    18A      0.536286  
      19A      0.774469    20A      0.810906    21A      0.875211  
      22A      0.878288    23A      0.885397    24A      0.887023  
      25A      0.975420    26A      1.065571    27A      1.199987  
      28A      1.693250  

    Final Occupation by Irrep:
              A 
    DOCC [     9 ]
    SOCC [     1 ]
    NA   [    10 ]
    NB   [     9 ]

  @DF-UKS Final Energy:  -116.06313815402224

   => Energetics <=

    Nuclear Repulsion Energy =             37.1187803155390839
    One-Electron Energy =                -231.1079654619537678
    Two-Electron Energy =                  93.5945352880203245
    DFT Exchange-Correlation Energy =     -15.6684882956278759
    Empirical Dispersion Energy =           0.0000000000000000
    VV10 Nonlocal Energy =                  0.0000000000000000
    Total Energy =                       -116.0631381540222407

  UHF NO Occupations:
  HONO-2 :    8  A 1.9998549
  HONO-1 :    9  A 1.9990061
  HONO-0 :   10  A 1.0000000
  LUNO+0 :   11  A 0.0009939
  LUNO+1 :   12  A 0.0001451
  LUNO+2 :   13  A 0.0000935
  LUNO+3 :   14  A 0.0000622


Computation Completed


Properties will be evaluated at   0.000000,   0.000000,   0.000000 [a0]

Properties computed using the SCF density matrix


 Multipole Moments:

 ------------------------------------------------------------------------------------
     Multipole            Electronic (a.u.)      Nuclear  (a.u.)        Total (a.u.)
 ------------------------------------------------------------------------------------

 L = 1.  Multiply by 2.5417464519 to convert [e a0] to [Debye]
 Dipole X            :          2.7600506           -3.3173258           -0.5572752
 Dipole Y            :         -0.2091185            0.8855681            0.6764496
 Dipole Z            :          0.0023721           -0.0037806           -0.0014085
 Magnitude           :                                                    0.8764370

 ------------------------------------------------------------------------------------

*** tstop() called on NUS-LAPTOP at Wed Aug 16 17:03:57 2023
Module time:
	user time   =       1.48 seconds =       0.02 minutes
	system time =       0.02 seconds =       0.00 minutes
	total time  =          1 seconds =       0.02 minutes
Total time:
	user time   =      46.83 seconds =       0.78 minutes
	system time =       0.71 seconds =       0.01 minutes
	total time  =         47 seconds =       0.78 minutes
