
    -----------------------------------------------------------------------
          Psi4: An Open-Source Ab Initio Electronic Structure Package
                               Psi4 1.8 release

                         Git: Rev {} zzzzzzz 


    D. G. A. Smith, L. A. Burns, A. C. Simmonett, R. M. Parrish,
    M. C. Schieber, R. Galvelis, P. Kraus, H. Kruse, R. Di Remigio,
    A. Alenaizan, A. M. James, S. Lehtola, J. P. Misiewicz, M. Scheurer,
    R. A. Shaw, J. B. Schriber, Y. Xie, Z. L. Glick, D. A. Sirianni,
    J. S. O'Brien, J. M. Waldrop, A. Kumar, E. G. Hohenstein,
    B. P. Pritchard, B. R. Brooks, H. F. Schaefer III, A. Yu. Sokolov,
    K. Patkowski, A. E. DePrince III, U. Bozkaya, R. A. King,
    F. A. Evangelista, J. M. Turney, T. D. Crawford, C. D. Sherrill,
    J. Chem. Phys. 152(18) 184108 (2020). https://doi.org/10.1063/5.0006002

                            Additional Code Authors
    E. T. Seidl, C. L. Janssen, E. F. Valeev, M. L. Leininger,
    J. F. Gonthier, R. M. Richard, H. R. McAlexander, M. Saitow, X. Wang,
    P. Verma, M. H. Lechner, A. Jiang, S. Behnle, A. G. Heide,
    M. F. Herbst, and D. L. Poole

             Previous Authors, Complete List of Code Contributors,
                       and Citations for Specific Modules
    https://github.com/psi4/psi4/blob/master/codemeta.json
    https://github.com/psi4/psi4/graphs/contributors
    http://psicode.org/psi4manual/master/introduction.html#citing-psifour

    -----------------------------------------------------------------------


    Psi4 started on: Wednesday, 16 August 2023 05:03PM

    Process ID: 19122
    Host:       NUS-LAPTOP
    PSIDATADIR: /home/stephen/src/psi4conda/share/psi4
    Memory:     500.0 MiB
    Threads:    1
    
Scratch directory: /tmp/
   => Libint2 <=

    Primary   basis highest AM E, G, H:  5, 4, 3
    Auxiliary basis highest AM E, G, H:  6, 5, 4
    Onebody   basis highest AM E, G, H:  6, 5, 4
    Solid Harmonics ordering:            gaussian

*** tstart() called on NUS-LAPTOP
*** at Wed Aug 16 17:03:28 2023

   => Loading Basis Set <=

    Name: 6-31G
    Role: ORBITAL
    Keyword: BASIS
    atoms 1   entry CL         line   294 file /home/stephen/src/psi4conda/share/psi4/basis/6-31g.gbs 
    atoms 2   entry C          line    87 file /home/stephen/src/psi4conda/share/psi4/basis/6-31g.gbs 
    atoms 3-5 entry H          line    26 file /home/stephen/src/psi4conda/share/psi4/basis/6-31g.gbs 
    atoms 6   entry F          line   132 file /home/stephen/src/psi4conda/share/psi4/basis/6-31g.gbs 


         ---------------------------------------------------------
                                   SCF
               by Justin Turney, Rob Parrish, Andy Simmonett
                          and Daniel G. A. Smith
                              UKS Reference
                        1 Threads,    500 MiB Core
         ---------------------------------------------------------

  ==> Geometry <==

    Molecular point group: c1
    Full point group: C1h

    Geometry (in Angstrom), charge = -1, multiplicity = 1:

       Center              X                  Y                   Z               Mass       
    ------------   -----------------  -----------------  -----------------  -----------------
         CL           0.000000000000     1.615892055314     0.000000000000    34.968852682000
         C            0.000000000000    -0.234606384686     0.000000000000    12.000000000000
         H            0.513161700000    -0.562386714686    -0.888822140000     1.007825032230
         H            0.513161700000    -0.562386714686     0.888822140000     1.007825032230
         H           -1.026323400000    -0.562386714686     0.000000000000     1.007825032230
         F            0.000000000000    -2.736559064686     0.000000000000    18.998403162730

  Running in c1 symmetry.

  Rotational constants: A =      5.29324  B =      0.07119  C =      0.07119 [cm^-1]
  Rotational constants: A = 158687.36190  B =   2134.28361  C =   2134.28361 [MHz]
  Nuclear repulsion =   86.076285328896518

  Charge       = -1
  Multiplicity = 1
  Electrons    = 36
  Nalpha       = 18
  Nbeta        = 18

  ==> Algorithm <==

  SCF Algorithm Type is DF.
  DIIS enabled.
  MOM disabled.
  Fractional occupation disabled.
  Guess Type is SAD.
  Energy threshold   = 1.00e-08
  Density threshold  = 1.00e-06
  Integral threshold = 1.00e-12

  ==> Primary Basis <==

  Basis Set: 6-31G
    Blend: 6-31G
    Number of shells: 23
    Number of basis functions: 37
    Number of Cartesian functions: 37
    Spherical Harmonics?: false
    Max angular momentum: 1

  ==> DFT Potential <==

   => LibXC <=

    Version 6.1.0
    S. Lehtola, C. Steigemann, M. J.T. Oliveira, and M. A.L. Marques.,  SoftwareX 7, 1–5 (2018) (10.1016/j.softx.2017.11.002)

   => Composite Functional: PBE_CUSTOM <= 

    Perdew, Burke & Ernzerhof
    J. P. Perdew, K. Burke, and M. Ernzerhof.,  Phys. Rev. Lett. 77, 3865 (1996) (10.1103/PhysRevLett.77.3865)
    J. P. Perdew, K. Burke, and M. Ernzerhof.,  Phys. Rev. Lett. 78, 1396 (1997) (10.1103/PhysRevLett.78.1396)

    Deriv               =              1
    GGA                 =           TRUE
    Meta                =          FALSE

    Exchange Hybrid     =          FALSE
    MP2 Hybrid          =          FALSE

   => Exchange Functionals <=

    1.0000     XC_GGA_X_PBE

   => Correlation Functionals <=

    1.0000     XC_GGA_C_PBE

   => LibXC Density Thresholds  <==

    XC_GGA_C_PBE:  1.00E-12 
    XC_GGA_X_PBE:  1.00E-15 

   => Molecular Quadrature <=

    Radial Scheme          =       TREUTLER
    Pruning Scheme         =           NONE
    Nuclear Scheme         =       TREUTLER

    Blocking Scheme        =         OCTREE
    BS radius alpha        =              1
    Pruning alpha          =              1
    Radial Points          =             75
    Spherical Points       =            302
    Total Points           =         129038
    Total Blocks           =           1067
    Max Points             =            256
    Max Functions          =             35
    Weights Tolerance      =       1.00E-15

   => Loading Basis Set <=

    Name: (6-31G AUX)
    Role: JKFIT
    Keyword: DF_BASIS_SCF
    atoms 1   entry CL         line   667 file /home/stephen/src/psi4conda/share/psi4/basis/cc-pvdz-jkfit.gbs 
    atoms 2   entry C          line   121 file /home/stephen/src/psi4conda/share/psi4/basis/cc-pvdz-jkfit.gbs 
    atoms 3-5 entry H          line    51 file /home/stephen/src/psi4conda/share/psi4/basis/cc-pvdz-jkfit.gbs 
    atoms 6   entry F          line   271 file /home/stephen/src/psi4conda/share/psi4/basis/cc-pvdz-jkfit.gbs 

  ==> Integral Setup <==

  DFHelper Memory: AOs need 0.005 GiB; user supplied 0.253 GiB. 
  Using in-core AOs.

  ==> MemDFJK: Density-Fitted J/K Matrices <==

    J tasked:                   Yes
    K tasked:                    No
    wK tasked:                   No
    OpenMP threads:               1
    Memory [MiB]:               258
    Algorithm:                 Core
    Schwarz Cutoff:           1E-12
    Mask sparsity (%):       4.5289
    Fitting Condition:        1E-10

   => Auxiliary Basis Set <=

  Basis Set: (6-31G AUX)
    Blend: CC-PVDZ-JKFIT
    Number of shells: 111
    Number of basis functions: 367
    Number of Cartesian functions: 367
    Spherical Harmonics?: false
    Max angular momentum: 3

  Cached 100.0% of DFT collocation blocks in 0.113 [GiB].

  Minimum eigenvalue in the overlap matrix is 2.0089499009E-02.
  Reciprocal condition number of the overlap matrix is 4.6086456557E-03.
    Using symmetric orthogonalization.

  ==> Pre-Iterations <==

  SCF Guess: Superposition of Atomic Densities via on-the-fly atomic UHF (no occupation information).

   -------------------------
    Irrep   Nso     Nmo    
   -------------------------
     A         37      37 
   -------------------------
    Total      37      37
   -------------------------

  ==> Iterations <==

                           Total Energy        Delta E     RMS |[F,P]|

   @DF-UKS iter SAD:  -598.95211854393551   -5.98952e+02   0.00000e+00 
   @DF-UKS iter   1:  -599.22047648388934   -2.68358e-01   2.26525e-02 DIIS/ADIIS
   @DF-UKS iter   2:  -590.82995073599193    8.39053e+00   8.76723e-02 DIIS/ADIIS
   @DF-UKS iter   3:  -599.19736464845778   -8.36741e+00   2.21148e-02 DIIS/ADIIS
   @DF-UKS iter   4:  -599.39913767459063   -2.01773e-01   1.39002e-02 DIIS/ADIIS
   @DF-UKS iter   5:  -599.53115053264207   -1.32013e-01   1.05559e-03 DIIS/ADIIS
   @DF-UKS iter   6:  -599.53010909711384    1.04144e-03   1.52325e-03 DIIS/ADIIS
   @DF-UKS iter   7:  -599.53209859143476   -1.98949e-03   1.13639e-04 DIIS/ADIIS
   @DF-UKS iter   8:  -599.53210972090346   -1.11295e-05   6.09627e-06 DIIS
   @DF-UKS iter   9:  -599.53210972827310   -7.36964e-09   3.34450e-06 DIIS
   @DF-UKS iter  10:  -599.53210973852163   -1.02485e-08   1.93607e-07 DIIS
   @DF-UKS iter  11:  -599.53210973854755   -2.59206e-11   3.81242e-08 DIIS
  Energy and wave function converged.


  ==> Post-Iterations <==

   Electrons on quadrature grid:
      Nalpha   =   18.0000065574 ; deviation = 6.557e-06
      Nbeta    =   18.0000065574 ; deviation = 6.557e-06
      Ntotal   =   36.0000131148 ; deviation = 1.311e-05 

   @Spin Contamination Metric:  -6.750155990E-14
   @S^2 Expected:                0.000000000E+00
   @S^2 Observed:               -6.750155990E-14
   @S   Expected:                0.000000000E+00
   @S   Observed:                0.000000000E+00

    Orbital Energies [Eh]
    ---------------------

    Alpha Occupied:                                                       

       1A   -100.458433     2A    -23.801309     3A     -9.734539  
       4A     -8.975724     5A     -6.799770     6A     -6.789834  
       7A     -6.789834     8A     -0.585280     9A     -0.578618  
      10A     -0.412455    11A     -0.200329    12A     -0.200329  
      13A     -0.173008    14A     -0.077087    15A     -0.077087  
      16A      0.087008    17A      0.103057    18A      0.103057  

    Alpha Virtual:                                                        

      19A      0.196687    20A      0.278307    21A      0.323008  
      22A      0.323010    23A      0.540292    24A      0.591884  
      25A      0.591884    26A      0.637997    27A      0.725698  
      28A      0.725701    29A      0.839995    30A      1.068680  
      31A      1.068681    32A      1.093347    33A      1.268190  
      34A      1.514268    35A      1.514269    36A      1.567826  
      37A      1.945495  

    Beta Occupied:                                                        

       1A   -100.458433     2A    -23.801309     3A     -9.734539  
       4A     -8.975724     5A     -6.799770     6A     -6.789834  
       7A     -6.789834     8A     -0.585280     9A     -0.578618  
      10A     -0.412455    11A     -0.200329    12A     -0.200329  
      13A     -0.173008    14A     -0.077087    15A     -0.077087  
      16A      0.087008    17A      0.103057    18A      0.103057  

    Beta Virtual:                                                         

      19A      0.196687    20A      0.278307    21A      0.323008  
      22A      0.323010    23A      0.540292    24A      0.591884  
      25A      0.591884    26A      0.637997    27A      0.725698  
      28A      0.725701    29A      0.839995    30A      1.068680  
      31A      1.068681    32A      1.093347    33A      1.268190  
      34A      1.514268    35A      1.514269    36A      1.567826  
      37A      1.945495  

    Final Occupation by Irrep:
              A 
    DOCC [    18 ]
    SOCC [     0 ]
    NA   [    18 ]
    NB   [    18 ]

  @DF-UKS Final Energy:  -599.53210973854755

   => Energetics <=

    Nuclear Repulsion Energy =             86.0762853288965175
    One-Electron Energy =               -1008.4103092014699996
    Two-Electron Energy =                 368.0249631593181903
    DFT Exchange-Correlation Energy =     -45.2230490252922621
    Empirical Dispersion Energy =           0.0000000000000000
    VV10 Nonlocal Energy =                  0.0000000000000000
    Total Energy =                       -599.5321097385475468

  UHF NO Occupations:
  HONO-2 :   16  A 2.0000000
  HONO-1 :   17  A 2.0000000
  HONO-0 :   18  A 2.0000000
  LUNO+0 :   19  A 0.0000000
  LUNO+1 :   20  A 0.0000000
  LUNO+2 :   21  A 0.0000000
  LUNO+3 :   22  A 0.0000000


Computation Completed


Properties will be evaluated at   0.000000,   0.000000,   0.000000 [a0]

Properties computed using the SCF density matrix


 Multipole Moments:

 ------------------------------------------------------------------------------------
     Multipole            Electronic (a.u.)      Nuclear  (a.u.)        Total (a.u.)
 ------------------------------------------------------------------------------------

 L = 1.  Multiply by 2.5417464519 to convert [e a0] to [Debye]
 Dipole X            :          0.0000001            0.0000000            0.0000001
 Dipole Y            :          2.6816763           -0.4793576            2.2023188
 Dipole Z            :         -0.0000000            0.0000000           -0.0000000
 Magnitude           :                                                    2.2023188

 ------------------------------------------------------------------------------------

*** tstop() called on NUS-LAPTOP at Wed Aug 16 17:03:30 2023
Module time:
	user time   =       1.61 seconds =       0.03 minutes
	system time =       0.02 seconds =       0.00 minutes
	total time  =          2 seconds =       0.03 minutes
Total time:
	user time   =      19.84 seconds =       0.33 minutes
	system time =       0.28 seconds =       0.00 minutes
	total time  =         20 seconds =       0.33 minutes
